LAMMPS (7 Jan 2022)
Lattice spacing in x,y,z = 4.0982 4.0982 4.0982
Created orthogonal box = (-163.928 -163.928 0) to (163.928 163.928 4.0982)
  2 by 4 by 1 MPI processor grid
Lattice spacing in x,y,z = 5.1838585 5.1838585 4.0982
Created 25501 atoms
  using lattice units in orthogonal box = (-163.928 -163.928 0) to (163.928 163.928 4.0982)
  create_atoms CPU = 0.002 seconds
Deleted 3334 atoms, new total = 22167
Lattice spacing in x,y,z = 5.1838585 5.1838585 4.0982
Created 3334 atoms
  using lattice units in orthogonal box = (-163.928 -163.928 0) to (163.928 163.928 4.0982)
  create_atoms CPU = 0.001 seconds
22167 atoms in group large
3334 atoms in group small
Displacing atoms ...
System init for delete_atoms ...
Neighbor list info ...
  update every 1 steps, delay 10 steps, check yes
  max neighbors/atom: 2000, page size: 100000
  master list distance cutoff = 8.28721
  ghost atom cutoff = 8.28721
  binsize = 4.143605, bins = 80 80 1
  2 neighbor lists, perpetual/occasional/extra = 1 1 0
  (1) command delete_atoms, occasional
      attributes: full, newton on
      pair build: full/bin/atomonly
      stencil: full/bin/3d
      bin: standard
  (2) pair eam/alloy, perpetual
      attributes: half, newton on
      pair build: half/bin/atomonly/newton
      stencil: half/bin/3d
      bin: standard
Deleted 0 atoms, new total = 25501
WARNING: Using 'neigh_modify every 1 delay 0 check yes' setting during minimization (../min.cpp:187)
Neighbor list info ...
  update every 1 steps, delay 0 steps, check yes
  max neighbors/atom: 2000, page size: 100000
  master list distance cutoff = 8.28721
  ghost atom cutoff = 8.28721
  binsize = 4.143605, bins = 80 80 1
  2 neighbor lists, perpetual/occasional/extra = 1 1 0
  (1) pair eam/alloy, perpetual
      attributes: half, newton on
      pair build: half/bin/atomonly/newton
      stencil: half/bin/3d
      bin: standard
  (2) compute centro/atom, occasional
      attributes: full, newton on
      pair build: full/bin/atomonly
      stencil: full/bin/3d
      bin: standard
Setting up cg style minimization ...
  Unit style    : metal
  Current step  : 0
Per MPI rank memory allocation (min/avg/max) = 14.96 | 14.96 | 14.97 Mbytes
Step PotEng Lx Ly Lz Press Pxx Pyy Pzz c_eatoms 
       0   -84970.626      327.856      327.856       4.0982   -25591.986   -25322.273   -25481.158   -25972.529   -84970.626 
      10    -85333.61      327.856      327.856       4.0982   -25482.691   -24923.963   -25415.627   -26108.484    -85333.61 
      20   -85359.862      327.856      327.856       4.0982   -26186.181   -25797.831   -26130.848   -26629.865   -85359.862 
      30    -85374.15      327.856      327.856       4.0982   -26463.158   -26084.028   -26376.293   -26929.153    -85374.15 
      40   -85381.934      327.856      327.856       4.0982    -26504.52   -26106.942   -26446.408    -26960.21   -85381.934 
      50    -85386.72      327.856      327.856       4.0982   -26535.713   -26090.973   -26507.688   -27008.478    -85386.72 
      60   -85389.314      327.856      327.856       4.0982   -26584.822   -26115.197   -26589.918   -27049.353   -85389.314 
      70    -85392.58      327.856      327.856       4.0982   -26679.215   -26182.904   -26725.649   -27129.094    -85392.58 
      80   -85394.881      327.856      327.856       4.0982   -26733.972   -26217.787   -26804.395   -27179.732   -85394.881 
      90   -85398.967      327.856      327.856       4.0982   -26879.954   -26316.713   -27037.378   -27285.769   -85398.967 
     100   -85400.561      327.856      327.856       4.0982   -26914.655   -26346.711   -27086.334   -27310.919   -85400.561 
     110   -85402.136      327.856      327.856       4.0982   -26913.582   -26357.155   -27079.969   -27303.623   -85402.136 
     120    -85403.46      327.856      327.856       4.0982   -26905.624   -26346.945   -27070.848   -27299.079    -85403.46 
     130   -85404.672      327.856      327.856       4.0982   -26906.887   -26349.535    -27069.24   -27301.885   -85404.672 
     140   -85405.568      327.856      327.856       4.0982   -26912.554   -26348.925   -27082.038   -27306.699   -85405.568 
     150    -85406.13      327.856      327.856       4.0982   -26905.863   -26342.434   -27071.668   -27303.487    -85406.13 
     160   -85406.477      327.856      327.856       4.0982   -26901.726   -26319.881   -27081.335   -27303.963   -85406.477 
     170   -85406.922      327.856      327.856       4.0982    -26904.03   -26297.993   -27100.155   -27313.942   -85406.922 
     180   -85407.205      327.856      327.856       4.0982   -26899.154     -26290.3   -27098.813   -27308.349   -85407.205 
     190   -85407.388      327.856      327.856       4.0982   -26894.652   -26280.964   -27096.691   -27306.301   -85407.388 
     200   -85407.554      327.856      327.856       4.0982    -26888.69   -26275.504   -27087.221   -27303.345   -85407.554 
     210   -85407.843      327.856      327.856       4.0982   -26890.059   -26270.968   -27095.573   -27303.637   -85407.843 
     220   -85408.045      327.856      327.856       4.0982    -26887.92   -26265.889   -27096.923   -27300.947   -85408.045 
     230   -85408.184      327.856      327.856       4.0982   -26881.808    -26259.56   -27089.632   -27296.232   -85408.184 
     240   -85408.327      327.856      327.856       4.0982   -26877.394   -26249.888   -27089.975   -27292.318   -85408.327 
     250   -85408.432      327.856      327.856       4.0982   -26877.314   -26247.509   -27094.448   -27289.984   -85408.432 
     260   -85408.508      327.856      327.856       4.0982   -26870.705   -26234.102   -27093.491   -27284.523   -85408.508 
     270   -85408.562      327.856      327.856       4.0982   -26866.839   -26228.542    -27091.93   -27280.044   -85408.562 
     280   -85408.615      327.856      327.856       4.0982     -26861.5   -26219.021   -27091.719   -27273.762   -85408.615 
     290   -85408.665      327.856      327.856       4.0982   -26856.259   -26208.738   -27090.378   -27269.663   -85408.665 
     300   -85408.706      327.856      327.856       4.0982   -26854.916   -26207.023   -27089.458   -27268.267   -85408.706 
     310   -85408.734      327.856      327.856       4.0982   -26853.392   -26202.798     -27091.5   -27265.877   -85408.734 
     320   -85408.753      327.856      327.856       4.0982   -26852.739   -26201.403   -27092.251   -27264.564   -85408.753 
     330   -85408.768      327.856      327.856       4.0982   -26852.862   -26200.213    -27094.82   -27263.554   -85408.768 
     340   -85408.781      327.856      327.856       4.0982   -26851.591   -26196.993   -27095.759   -27262.022   -85408.781 
     350    -85408.79      327.856      327.856       4.0982   -26851.399   -26196.652   -27096.303   -27261.242    -85408.79 
     360   -85408.796      327.856      327.856       4.0982    -26851.64   -26195.997   -27097.206   -27261.716   -85408.796 
     370   -85408.802      327.856      327.856       4.0982    -26851.15    -26195.04   -27097.621   -27260.788   -85408.802 
     380   -85408.806      327.856      327.856       4.0982   -26851.095   -26194.421   -27098.287   -27260.576   -85408.806 
     390   -85408.809      327.856      327.856       4.0982    -26851.07   -26193.798   -27098.846   -27260.566   -85408.809 
     400   -85408.811      327.856      327.856       4.0982    -26850.91   -26193.439   -27099.045   -27260.244   -85408.811 
     410   -85408.812      327.856      327.856       4.0982   -26851.034   -26193.405   -27099.459   -27260.236   -85408.812 
     420   -85408.813      327.856      327.856       4.0982   -26850.933   -26192.867   -27099.739   -27260.194   -85408.813 
     430   -85408.814      327.856      327.856       4.0982   -26850.713   -26192.462   -27099.723   -27259.955   -85408.814 
     440   -85408.814      327.856      327.856       4.0982   -26850.762   -26192.449   -27099.951   -27259.885   -85408.814 
     450   -85408.814      327.856      327.856       4.0982   -26850.835   -26192.391    -27100.22   -27259.895   -85408.814 
     460   -85408.815      327.856      327.856       4.0982   -26850.724   -26192.116   -27100.324   -27259.732   -85408.815 
     470   -85408.815      327.856      327.856       4.0982   -26850.741   -26191.971   -27100.538   -27259.714   -85408.815 
     480   -85408.815      327.856      327.856       4.0982   -26850.748   -26191.861   -27100.722   -27259.663   -85408.815 
     490   -85408.815      327.856      327.856       4.0982    -26850.73   -26191.738   -27100.876   -27259.577   -85408.815 
     500   -85408.815      327.856      327.856       4.0982   -26850.736   -26191.691   -27100.965   -27259.551   -85408.815 
     510   -85408.815      327.856      327.856       4.0982   -26850.714   -26191.545   -27101.096     -27259.5   -85408.815 
     520   -85408.815      327.856      327.856       4.0982   -26850.725    -26191.51    -27101.18   -27259.485   -85408.815 
     530   -85408.815      327.856      327.856       4.0982   -26850.745   -26191.474   -27101.296   -27259.465   -85408.815 
     540   -85408.815      327.856      327.856       4.0982   -26850.735   -26191.423   -27101.355   -27259.428   -85408.815 
     550   -85408.815      327.856      327.856       4.0982   -26850.752   -26191.418    -27101.42   -27259.418   -85408.815 
     560   -85408.815      327.856      327.856       4.0982   -26850.758   -26191.397   -27101.471   -27259.406   -85408.815 
     570   -85408.815      327.856      327.856       4.0982   -26850.774   -26191.397   -27101.519   -27259.406   -85408.815 
     580   -85408.815      327.856      327.856       4.0982   -26850.763   -26191.362   -27101.543   -27259.385   -85408.815 
     590   -85408.815      327.856      327.856       4.0982   -26850.764   -26191.337   -27101.579   -27259.375   -85408.815 
     600   -85408.815      327.856      327.856       4.0982   -26850.781   -26191.343   -27101.631   -27259.369   -85408.815 
     610   -85408.815      327.856      327.856       4.0982   -26850.781   -26191.313   -27101.662   -27259.369   -85408.815 
     620   -85408.815      327.856      327.856       4.0982   -26850.777   -26191.303   -27101.668   -27259.361   -85408.815 
     630   -85408.815      327.856      327.856       4.0982   -26850.774    -26191.29   -27101.682   -27259.352   -85408.815 
     640   -85408.815      327.856      327.856       4.0982   -26850.778   -26191.284   -27101.702   -27259.349   -85408.815 
     650   -85408.815      327.856      327.856       4.0982   -26850.779   -26191.275   -27101.714   -27259.347   -85408.815 
     660   -85408.815      327.856      327.856       4.0982   -26850.776   -26191.262   -27101.722   -27259.343   -85408.815 
     670   -85408.815      327.856      327.856       4.0982   -26850.777   -26191.257   -27101.732   -27259.341   -85408.815 
     680   -85408.815      327.856      327.856       4.0982   -26850.775    -26191.25   -27101.738   -27259.339   -85408.815 
     690   -85408.815      327.856      327.856       4.0982   -26850.775   -26191.244   -27101.745   -27259.336   -85408.815 
     700   -85408.815      327.856      327.856       4.0982   -26850.777   -26191.247    -27101.75   -27259.335   -85408.815 
     710   -85408.815      327.856      327.856       4.0982   -26850.777    -26191.24   -27101.756   -27259.334   -85408.815 
     720   -85408.815      327.856      327.856       4.0982   -26850.777   -26191.238   -27101.761   -27259.332   -85408.815 
     730   -85408.815      327.856      327.856       4.0982   -26850.778   -26191.236   -27101.765   -27259.332   -85408.815 
     740   -85408.815      327.856      327.856       4.0982   -26850.778   -26191.234   -27101.768    -27259.33   -85408.815 
     750   -85408.815      327.856      327.856       4.0982   -26850.779   -26191.234   -27101.772    -27259.33   -85408.815 
     757   -85408.815      327.856      327.856       4.0982   -26850.779   -26191.234   -27101.773    -27259.33   -85408.815 
Loop time of 13.8468 on 8 procs for 757 steps with 25501 atoms

99.6% CPU use with 8 MPI tasks x no OpenMP threads

Minimization stats:
  Stopping criterion = energy tolerance
  Energy initial, next-to-last, final = 
     -84970.6256757142  -85408.8153505199  -85408.8153505199
  Force two-norm initial, final = 73.710419 0.00011299675
  Force max component initial, final = 6.6030244 4.6316771e-05
  Final line search alpha, max atom move = 1 4.6316771e-05
  Iterations, force evaluations = 757 1417

MPI task timing breakdown:
Section |  min time  |  avg time  |  max time  |%varavg| %total
---------------------------------------------------------------
Pair    | 11.951     | 12.102     | 12.262     |   3.1 | 87.40
Neigh   | 0.07378    | 0.075145   | 0.077845   |   0.4 |  0.54
Comm    | 0.24838    | 0.37638    | 0.55737    |  18.5 |  2.72
Output  | 0.92575    | 0.95567    | 1.0655     |   4.3 |  6.90
Modify  | 0          | 0          | 0          |   0.0 |  0.00
Other   |            | 0.338      |            |       |  2.44

Nlocal:        3187.62 ave        3194 max        3180 min
Histogram: 2 1 0 0 1 0 0 1 0 3
Nghost:        19979.1 ave       20033 max       19941 min
Histogram: 2 1 1 0 0 2 1 0 0 1
Neighs:         221860 ave      222874 max      220649 min
Histogram: 1 1 0 1 0 1 0 1 2 1
FullNghs:       443719 ave      445345 max      441415 min
Histogram: 1 1 0 1 0 1 0 0 2 2

Total # of neighbors = 3549750
Ave neighs/atom = 139.20042
Neighbor list builds = 10
Dangerous builds = 0
WARNING: Using 'neigh_modify every 1 delay 0 check yes' setting during minimization (../min.cpp:187)
Setting up cg style minimization ...
  Unit style    : metal
  Current step  : 0
WARNING: Energy due to 3 extra global DOFs will be included in minimizer energies
Per MPI rank memory allocation (min/avg/max) = 13.22 | 13.22 | 13.22 Mbytes
Step PotEng Lx Ly Lz Press Pxx Pyy Pzz c_eatoms 
       0   -85408.815      327.856      327.856       4.0982   -26850.779   -26191.234   -27101.773    -27259.33   -85408.815 
      10   -85468.333      327.856    324.57744       4.0982   -19494.338    -20735.17   -16153.077   -21594.768   -85468.333 
      20   -85497.291      327.856    321.29888       4.0982   -11892.463   -15097.259   -4829.0289   -15751.102   -85497.291 
      30   -85500.723      327.856    319.89026       4.0982   -8605.3864     -12661.2    1.7273275   -13156.687   -85500.723 
      40   -85500.902      327.856    319.88711       4.0982   -8613.0076   -12665.457   -23.257592   -13150.309   -85500.902 
      50   -85500.988      327.856     319.8943       4.0982   -8651.6235    -12689.97   -93.973678   -13170.927   -85500.988 
      60   -85501.071      327.856    319.86506       4.0982    -8590.512   -12647.634   -3.8484216   -13120.054   -85501.071 
      70   -85501.109      327.856    319.85894       4.0982   -8584.5697   -12642.358    2.0910967   -13113.442   -85501.109 
      80   -85501.146      327.856    319.87087       4.0982   -8620.1592   -12669.028   -52.854723   -13138.595   -85501.146 
      90    -85501.17      327.856    319.85519       4.0982   -8586.2513   -12644.893   -2.9009318    -13110.96    -85501.17 
     100   -85501.191      327.856    319.85158       4.0982   -8582.1007   -12641.164    1.9919129    -13107.13   -85501.191 
     110   -85501.219      327.856    319.86231       4.0982   -8613.1409   -12664.391   -45.481112   -13129.551   -85501.219 
     120   -85501.239      327.856    319.84887       4.0982   -8584.2894   -12643.982   -2.8248199   -13106.061   -85501.239 
     130    -85501.26      327.856    319.84574       4.0982   -8580.4302   -12640.569    2.0443886   -13102.766    -85501.26 
     140   -85501.287      327.856     319.8564       4.0982   -8610.8689   -12663.424   -44.204862   -13124.978   -85501.287 
     150   -85501.307      327.856    319.84339       4.0982   -8582.9696   -12643.774   -2.7733921   -13102.362   -85501.307 
     160   -85501.329      327.856    319.84045       4.0982   -8579.1922   -12640.438    2.2170829   -13099.356   -85501.329 
     170   -85501.357      327.856    319.85217       4.0982   -8611.9583     -12665.1   -47.174178   -13123.601   -85501.357 
     180   -85501.378      327.856     319.8384       4.0982   -8582.1577   -12644.204   -2.5336141   -13099.735   -85501.378 
     190   -85501.399      327.856    319.83581       4.0982   -8578.8693    -12641.37    2.0644149   -13097.302   -85501.399 
     200   -85501.425      327.856    319.84655       4.0982   -8608.7981   -12664.055   -42.679408    -13119.66   -85501.425 
     210   -85501.443      327.856    319.83432       4.0982   -8582.1637   -12645.335   -2.6475491   -13098.508   -85501.443 
     220   -85501.459      327.856    319.83218       4.0982   -8579.2499   -12642.647    1.3888832   -13096.492   -85501.459 
     230   -85501.479      327.856    319.84009       4.0982     -8601.24   -12658.996   -31.707476   -13113.017   -85501.479 
     240   -85501.491      327.856    319.83128       4.0982   -8581.8668   -12645.132   -2.8337321   -13097.635   -85501.491 
     250   -85501.503      327.856    319.82951       4.0982   -8579.0664   -12642.402   0.91581171   -13095.713   -85501.503 
     260   -85501.516      327.856    319.83539       4.0982   -8595.1014   -12654.076   -23.455158   -13107.773   -85501.516 
     270   -85501.525      327.856     319.8291       4.0982   -8581.0619   -12643.945   -2.6507384    -13096.59   -85501.525 
     280   -85501.533      327.856    319.82765       4.0982   -8578.5624   -12641.471   0.67191203   -13094.888   -85501.533 
     290   -85501.542      327.856    319.83262       4.0982   -8591.7573   -12651.001   -19.416962   -13104.854   -85501.542 
     300   -85501.548      327.856    319.82754       4.0982   -8580.2456   -12642.681    -2.344374   -13095.711   -85501.548 
     310   -85501.554      327.856    319.82634       4.0982   -8578.0766   -12640.528   0.55696204   -13094.259   -85501.554 
     320   -85501.561      327.856    319.83078       4.0982   -8589.6901   -12648.918    -17.07814   -13103.074   -85501.561 
     330   -85501.566      327.856    319.82631       4.0982   -8579.4141   -12641.497   -1.7935232   -13094.952   -85501.566 
     340   -85501.571      327.856    319.82538       4.0982   -8577.7521   -12639.783   0.40954545   -13093.883   -85501.571 
     350   -85501.576      327.856    319.83059       4.0982   -8591.0024   -12649.419    -19.60221   -13103.986   -85501.576 
     360    -85501.58      327.856     319.8253       4.0982   -8578.6027   -12640.408   -1.1023389   -13094.298    -85501.58 
     370   -85501.584      327.856    319.82464       4.0982   -8577.4892   -12639.154   0.32391824   -13093.638   -85501.584 
     380   -85501.588      327.856    319.82971       4.0982   -8590.2895   -12648.479   -18.972407   -13103.418   -85501.588 
     390   -85501.591      327.856    319.82462       4.0982   -8578.2587   -12639.731   -1.0041394   -13094.041   -85501.591 
     400   -85501.594      327.856    319.82401       4.0982   -8577.2217   -12638.561   0.32809955   -13093.433   -85501.594 
     410   -85501.598      327.856    319.82776       4.0982    -8586.723   -12645.449   -14.020859   -13100.699   -85501.598 
     420   -85501.601      327.856    319.82401       4.0982   -8577.9254   -12639.081  -0.88960086   -13093.806   -85501.601 
     430   -85501.604      327.856    319.82346       4.0982   -8576.9956   -12637.986   0.28128174   -13093.282   -85501.604 
     440   -85501.608      327.856    319.82841       4.0982   -8589.3632   -12646.973   -18.363518   -13102.753   -85501.608 
     450    -85501.61      327.856    319.82366       4.0982   -8578.0631   -12638.732   -1.4992173   -13093.958    -85501.61 
     460   -85501.613      327.856    319.82296       4.0982   -8576.7478   -12637.347   0.23862407   -13093.136   -85501.613 
     470   -85501.617      327.856     319.8282       4.0982   -8589.7846   -12646.785   -19.440181   -13103.128   -85501.617 
     480    -85501.62      327.856    319.82298       4.0982   -8577.3152   -12637.634  -0.86112731   -13093.451    -85501.62 
     490   -85501.622      327.856    319.82244       4.0982   -8576.3186   -12636.442   0.37038736   -13092.884   -85501.622 
     500   -85501.626      327.856    319.82695       4.0982   -8587.5292   -12644.478   -16.625472   -13101.484   -85501.626 
     510    -85501.63      327.856    319.82274       4.0982   -8577.4422   -12637.051   -1.6635794   -13093.613    -85501.63 
     520   -85501.633      327.856    319.82192       4.0982   -8575.7716   -12635.246   0.49156853   -13092.561   -85501.633 
     530   -85501.639      327.856    319.82715       4.0982   -8588.6407   -12644.345   -19.117585    -13102.46   -85501.639 
     540   -85501.644      327.856    319.82228       4.0982   -8576.8465   -12635.602    -1.656523   -13093.281   -85501.644 
     550    -85501.65      327.856    319.82144       4.0982   -8575.0752   -12633.577   0.60213763   -13092.251    -85501.65 
     560   -85501.658      327.856    319.82839       4.0982   -8591.9964   -12645.631   -25.005122   -13105.353   -85501.658 
     570   -85501.664      327.856    319.82197       4.0982   -8576.3585    -12634.08   -1.6892696   -13093.306   -85501.664 
     580   -85501.671      327.856    319.82115       4.0982   -8574.5908   -12632.048   0.63870918   -13092.363   -85501.671 
     590   -85501.679      327.856    319.82734       4.0982   -8589.6344   -12642.792   -22.028423   -13104.083   -85501.679 
     600   -85501.685      327.856    319.82178       4.0982   -8576.1076   -12632.856    -1.782869   -13093.684   -85501.685 
     610    -85501.69      327.856    319.82098       4.0982   -8574.3925   -12630.981   0.54814961   -13092.745    -85501.69 
     620   -85501.696      327.856     319.8258       4.0982   -8586.1767   -12639.416   -17.172147   -13101.941   -85501.696 
     630     -85501.7      327.856    319.82154       4.0982    -8575.844    -12631.87   -1.6764718   -13093.985     -85501.7 
     640   -85501.703      327.856    319.82081       4.0982   -8574.3189   -12630.255   0.42217916   -13093.124   -85501.703 
     650   -85501.708      327.856    319.82548       4.0982   -8585.7547   -12638.513    -16.74549   -13102.005   -85501.708 
     660    -85501.71      327.856    319.82113       4.0982   -8575.2256   -12630.822  -0.96140038   -13093.894    -85501.71 
     670   -85501.713      327.856    319.81927       4.0982   -8570.9282   -12627.256    5.3135263   -13090.843   -85501.713 
     680   -85501.716      327.856    319.82571       4.0982   -8586.6591   -12638.728   -18.273481   -13102.976   -85501.716 
     690   -85501.718      327.856    319.82079       4.0982   -8574.7684   -12630.013  -0.46908219   -13093.823   -85501.718 
     700    -85501.72      327.856    319.82049       4.0982   -8574.2361   -12629.283   0.18945035   -13093.615    -85501.72 
     710   -85501.722      327.856    319.82479       4.0982   -8584.7594   -12636.951   -15.599752   -13101.727   -85501.722 
     720   -85501.723      327.856    319.82205       4.0982   -8578.2498   -12631.923    -5.960504   -13096.866   -85501.723 
     730   -85501.725      327.856    319.82241       4.0982   -8579.2288   -12632.518   -7.4856457   -13097.683   -85501.725 
     740    -85501.73      327.856    319.86639       4.0982   -8686.3819   -12711.039   -168.07172   -13180.035    -85501.73 
     750   -85501.749      327.856    319.81918       4.0982   -8573.7761   -12626.445  -0.49778209   -13094.386   -85501.749 
     760    -85501.75      327.856    319.82285       4.0982   -8582.8362   -12633.031   -14.131253   -13101.346    -85501.75 
     770   -85501.753      327.856    319.82005       4.0982   -8576.3534   -12628.209   -4.5328652   -13096.319   -85501.753 
     780   -85501.763      327.856    319.82173       4.0982   -8582.6292   -12631.791   -14.855109   -13101.241   -85501.763 
     790   -85501.764      327.856    319.81893       4.0982   -8575.8946   -12626.469   -4.9153845   -13096.299   -85501.764 
     800   -85501.764      327.856    319.81818       4.0982   -8574.0501   -12624.996   -2.1933768   -13094.961   -85501.764 
     810   -85501.764      327.856    319.81774       4.0982    -8572.906   -12624.133   -0.4778229   -13094.107   -85501.764 
     820   -85501.767      327.856    319.81777       4.0982   -8572.8285   -12624.342  -0.19679916   -13093.947   -85501.767 
     830   -85501.768      327.856     319.8176       4.0982   -8572.5593   -12623.865    0.1025036   -13093.915   -85501.768 
     840   -85501.768      327.856    319.81958       4.0982   -8577.4048   -12627.381   -7.1668165   -13097.667   -85501.768 
     850   -85501.769      327.856    319.81763       4.0982   -8572.7037   -12623.941  -0.11907924   -13094.051   -85501.769 
     860   -85501.769      327.856    319.81727       4.0982   -8571.9004    -12623.22    1.0338508   -13093.515   -85501.769 
     870   -85501.769      327.856    319.81656       4.0982   -8570.2097   -12621.933    3.5507282   -13092.247   -85501.769 
     880   -85501.769      327.856    319.81741       4.0982    -8572.297   -12623.417   0.41052454   -13093.885   -85501.769 
     890    -85501.77      327.856    319.81929       4.0982   -8576.9623   -12626.705   -6.6193223   -13097.563    -85501.77 
     900   -85501.774      327.856    319.81594       4.0982   -8569.4695   -12620.486    4.4010842   -13092.324   -85501.774 
     910   -85501.787      327.856    319.82082       4.0982   -8584.4344   -12627.937   -19.065714     -13106.3   -85501.787 
     920   -85501.788      327.856    319.81976       4.0982   -8581.9869   -12626.156    -15.35191   -13104.452   -85501.788 
     930    -85501.79      327.856    319.81944       4.0982   -8581.3101   -12625.662   -14.293131   -13103.975    -85501.79 
     940   -85501.791      327.856    319.81992       4.0982   -8582.6024   -12626.592   -16.181298   -13105.034   -85501.791 
     950   -85501.792      327.856    319.81512       4.0982    -8571.303   -12617.753   0.60708473   -13096.763   -85501.792 
     960   -85501.801      327.856    319.80888       4.0982   -8557.0528   -12606.307    22.170752   -13087.022   -85501.801 
     970   -85501.803      327.856     319.8209       4.0982   -8586.0621   -12627.917   -20.970348   -13109.299   -85501.803 
     980   -85501.804      327.856    319.81513       4.0982   -8572.1828   -12617.368  -0.11519192   -13099.065   -85501.804 
     990   -85501.805      327.856    319.81748       4.0982   -8577.8988   -12621.815   -8.5090994   -13103.373   -85501.805 
    1000   -85501.805      327.856    319.81608       4.0982   -8574.5489   -12619.329   -3.4855494   -13100.832   -85501.805 
    1010   -85501.805      327.856    319.81503       4.0982   -8572.1173   -12617.349   0.11439472   -13099.117   -85501.805 
    1020   -85501.805      327.856    319.81519       4.0982   -8572.4709   -12617.752  -0.33549164   -13099.325   -85501.805 
    1030   -85501.806      327.856      319.815       4.0982    -8572.109   -12617.418   0.27261433   -13099.181   -85501.806 
    1040   -85501.807      327.856    319.81506       4.0982   -8572.3035   -12617.527  0.017408931   -13099.401   -85501.807 
    1050   -85501.807      327.856    319.81051       4.0982    -8561.871   -12608.922    15.687787   -13092.379   -85501.807 
    1060   -85501.814      327.856    319.82078       4.0982   -8587.1566   -12627.878   -21.606683   -13111.985   -85501.814 
    1070   -85501.826      327.856    319.82471       4.0982   -8596.1836   -12634.284   -33.339466   -13120.928   -85501.826 
    1080    -85501.83      327.856    319.81593       4.0982   -8574.6199   -12618.622  -0.79301822   -13104.445    -85501.83 
    1090   -85501.833      327.856    319.81562       4.0982   -8573.8434   -12617.785   0.32927084   -13104.075   -85501.833 
    1100   -85501.837      327.856    319.82158       4.0982   -8588.0697   -12628.371   -20.813627   -13115.025   -85501.837 
    1110    -85501.84      327.856    319.81619       4.0982   -8574.7453   -12618.801   -0.6926401   -13104.742    -85501.84 
    1120   -85501.842      327.856    319.81557       4.0982   -8573.2452   -12617.448    1.5305382   -13103.818   -85501.842 
    1130   -85501.845      327.856     319.8211       4.0982   -8586.4776   -12627.292   -18.128615   -13114.012   -85501.845 
    1140   -85501.847      327.856    319.81632       4.0982   -8574.7286   -12618.825  -0.40332672   -13104.957   -85501.847 
    1150   -85501.849      327.856    319.81629       4.0982   -8574.6705   -12618.591  -0.33478797   -13105.085   -85501.849 
    1160   -85501.849      327.856       319.82       4.0982   -8583.6096   -12625.221   -13.655609   -13111.953   -85501.849 
    1170    -85501.85      327.856    319.80757       4.0982   -8553.4638   -12603.026    31.479104   -13088.844    -85501.85 
    1180    -85501.85      327.856    319.81624       4.0982   -8574.4982   -12618.463 0.0079006009   -13105.039    -85501.85 
    1190   -85501.852      327.856    319.81644       4.0982   -8574.8833   -12618.928  -0.42196458     -13105.3   -85501.852 
    1200   -85501.852      327.856    319.81604       4.0982   -8573.9781    -12618.04   0.88991813   -13104.784   -85501.852 
    1210   -85501.853      327.856    319.81635       4.0982   -8574.6879   -12618.676 -0.078434749    -13105.31   -85501.853 
    1220   -85501.854      327.856    319.81675       4.0982   -8575.6175   -12619.527   -1.3734564   -13105.952   -85501.854 
    1230   -85501.854      327.856    319.81636       4.0982   -8574.6707   -12618.838  0.068580151   -13105.243   -85501.854 
    1240   -85501.855      327.856    319.81635       4.0982   -8574.6971   -12618.773  0.027545095   -13105.346   -85501.855 
    1250   -85501.855      327.856    319.81637       4.0982   -8574.7583   -12618.812 -0.045075427   -13105.418   -85501.855 
    1260   -85501.855      327.856    319.81754       4.0982   -8577.5643   -12621.019   -4.1656372   -13107.508   -85501.855 
    1270   -85501.856      327.856    319.81632       4.0982   -8574.7399   -12618.723  0.024123157   -13105.521   -85501.856 
    1280   -85501.856      327.856    319.81653       4.0982   -8575.3671   -12619.087  -0.86803355   -13106.146   -85501.856 
    1290   -85501.864      327.856    319.81673       4.0982   -8576.4713   -12620.394   -1.8339254   -13107.186   -85501.864 
    1300   -85501.866      327.856    319.81629       4.0982   -8575.4018   -12619.872 -0.012057088   -13106.321   -85501.866 
    1310   -85501.866      327.856    319.81631       4.0982   -8575.4554   -12619.907 -0.058285754   -13106.401   -85501.866 
    1320   -85501.866      327.856    319.81627       4.0982   -8575.3737   -12619.769  0.063624501   -13106.416   -85501.866 
    1330   -85501.867      327.856    319.81621       4.0982   -8575.2683   -12619.494    0.2178436   -13106.529   -85501.867 
    1340   -85501.867      327.856    319.81643       4.0982    -8575.782   -12619.822   -0.5411265   -13106.983   -85501.867 
    1350   -85501.868      327.856    319.81565       4.0982   -8573.8985   -12618.412    2.1332392   -13105.417   -85501.868 
    1360   -85501.868      327.856    319.81607       4.0982   -8574.9317   -12619.151   0.55328055   -13106.197   -85501.868 
    1370   -85501.869      327.856    319.80809       4.0982   -8555.5832   -12604.864    29.671972   -13091.558   -85501.869 
    1380    -85501.87      327.856    319.81829       4.0982   -8580.3801   -12622.751    -7.454972   -13110.935    -85501.87 
    1390   -85501.871      327.856    319.81649       4.0982    -8576.052   -12619.595   -1.0342777   -13107.527   -85501.871 
    1400   -85501.871      327.856    319.81732       4.0982   -8578.0407   -12621.089   -4.0325165       -13109   -85501.871 
    1410   -85501.871      327.856     319.8166       4.0982   -8576.3168    -12619.78   -1.4697183     -13107.7   -85501.871 
    1420   -85501.871      327.856    319.81724       4.0982   -8577.8708   -12620.932   -3.7903919    -13108.89   -85501.871 
    1430   -85501.871      327.856    319.81531       4.0982   -8573.1915   -12617.592    3.2443378   -13105.227   -85501.871 
    1440   -85501.872      327.856    319.81615       4.0982   -8575.2923   -12619.007  0.054898361   -13106.924   -85501.872 
    1450   -85501.872      327.856    319.81632       4.0982    -8575.677   -12619.322  -0.51029856   -13107.199   -85501.872 
    1460   -85501.872      327.856    319.81616       4.0982   -8575.3182   -12618.977 -0.0050783947   -13106.973   -85501.872 
    1470   -85501.872      327.856    319.81667       4.0982    -8576.563   -12619.899   -1.8653407   -13107.925   -85501.872 
    1480   -85501.873      327.856     319.8161       4.0982   -8575.2787   -12618.826 0.0082469731   -13107.019   -85501.873 
    1490   -85501.873      327.856    319.81627       4.0982   -8575.6905   -12619.095  -0.62256216   -13107.354   -85501.873 
    1500   -85501.873      327.856    319.81611       4.0982   -8575.2932   -12618.826 -0.019765917   -13107.033   -85501.873 
    1510   -85501.873      327.856    319.81607       4.0982   -8575.2339   -12618.725  0.045777688   -13107.022   -85501.873 
    1520   -85501.873      327.856    319.81657       4.0982   -8576.4582   -12619.615   -1.7917294   -13107.968   -85501.873 
    1530   -85501.873      327.856    319.81609       4.0982   -8575.2872   -12618.775 -0.031456399   -13107.056   -85501.873 
    1540   -85501.875      327.856     319.8327       4.0982   -8615.8201   -12647.871   -61.016895   -13138.572   -85501.875 
    1550   -85501.877      327.856    319.81669       4.0982   -8577.0995   -12619.209   -3.1574443   -13108.932   -85501.877 
    1560   -85501.878      327.856    319.81593       4.0982   -8575.2787   -12617.855  -0.43671719   -13107.544   -85501.878 
    1570   -85501.878      327.856    319.81579       4.0982   -8574.9552   -12617.544  0.019803655   -13107.342   -85501.878 
    1580   -85501.878      327.856    319.81574       4.0982   -8574.8972   -12617.412  0.075444508   -13107.355   -85501.878 
    1590   -85501.878      327.856    319.81571       4.0982    -8574.873   -12617.297  0.079224493   -13107.401   -85501.878 
    1600   -85501.882      327.856    319.81543       4.0982   -8574.7307   -12616.324  0.054749219   -13107.923   -85501.882 
    1610   -85501.882      327.856    319.81531       4.0982   -8574.5381   -12615.844   0.10700937   -13107.877   -85501.882 
    1620   -85501.882      327.856    319.81558       4.0982   -8575.1708   -12616.201  -0.96249684   -13108.349   -85501.882 
    1630   -85501.883      327.856    319.81523       4.0982   -8574.1651   -12615.568   0.61581541   -13107.544   -85501.883 
    1640   -85501.883      327.856    319.81528       4.0982   -8574.3882   -12615.633   0.41421323   -13107.946   -85501.883 
    1650   -85501.883      327.856    319.81522       4.0982    -8574.244   -12615.462   0.59217985   -13107.862   -85501.883 
    1660   -85501.883      327.856    319.81606       4.0982   -8576.2605   -12616.881     -2.47034    -13109.43   -85501.883 
    1670   -85501.884      327.856    319.81539       4.0982   -8574.6583   -12615.765 -0.060478196   -13108.149   -85501.884 
    1680   -85501.884      327.856    319.81534       4.0982   -8574.5522   -12615.601   0.14225061   -13108.198   -85501.884 
    1690   -85501.884      327.856    319.81563       4.0982   -8575.2582   -12616.109    -0.886667   -13108.779   -85501.884 
    1700   -85501.885      327.856    319.81548       4.0982   -8574.9095   -12615.624  -0.40738191   -13108.698   -85501.885 
    1710   -85501.885      327.856    319.81613       4.0982    -8576.514   -12616.756   -2.7532876   -13110.033   -85501.885 
    1720   -85501.886      327.856    319.81774       4.0982   -8580.3987   -12619.466   -8.5943326   -13113.136   -85501.886 
    1730   -85501.886      327.856    319.81283       4.0982   -8568.5332   -12610.684    9.1463655   -13104.062   -85501.886 
    1740   -85501.886      327.856    319.81541       4.0982   -8574.7739   -12615.283  -0.13514365   -13108.904   -85501.886 
    1750   -85501.886      327.856    319.81531       4.0982   -8574.5321   -12615.096   0.22092408   -13108.721   -85501.886 
    1760   -85501.886      327.856    319.81534       4.0982   -8574.5985   -12615.141    0.1179144   -13108.773   -85501.886 
    1770   -85501.886      327.856    319.81539       4.0982   -8574.7293   -12615.231 -0.085188056   -13108.872   -85501.886 
    1780   -85501.886      327.856    319.81537       4.0982   -8574.6588   -12615.158  0.022092151    -13108.84   -85501.886 
    1790   -85501.886      327.856    319.81539       4.0982   -8574.6923   -12615.221 0.0070105478   -13108.863   -85501.886 
    1800   -85501.886      327.856    319.81436       4.0982   -8572.1698   -12613.348    3.7782656    -13106.94   -85501.886 
    1810   -85501.886      327.856    319.81542       4.0982   -8574.7176   -12615.056 -0.040346749   -13109.057   -85501.886 
    1820   -85501.886      327.856    319.81539       4.0982   -8574.6447   -12615.002  0.061756345   -13108.994   -85501.886 
    1830   -85501.886      327.856    319.81539       4.0982   -8574.6455   -12614.956   0.03456329   -13109.015   -85501.886 
    1840   -85501.886      327.856    319.81538       4.0982   -8574.5975   -12614.906  0.092069689   -13108.978   -85501.886 
    1850   -85501.886      327.856    319.81543       4.0982   -8574.6851   -12614.993 -0.037424509   -13109.025   -85501.886 
    1860   -85501.887      327.856    319.81542       4.0982   -8574.6623   -12614.978  0.014529226   -13109.023   -85501.887 
    1870   -85501.887      327.856    319.81543       4.0982   -8574.6675   -12614.972  0.013803683   -13109.045   -85501.887 
    1880   -85501.887      327.856    319.81544       4.0982   -8574.6764   -12614.963 0.0021395613   -13109.068   -85501.887 
    1890    -85501.89      327.856    319.81565       4.0982   -8574.6615   -12614.512  0.066647702   -13109.539    -85501.89 
    1900    -85501.89      327.856    319.81571       4.0982   -8574.7944   -12614.535  -0.18348023   -13109.664    -85501.89 
    1910    -85501.89      327.856    319.81536       4.0982   -8573.8199    -12613.85    1.3075506   -13108.917    -85501.89 
    1920   -85501.891      327.856    319.81632       4.0982   -8575.9753   -12615.195    -1.853335   -13110.877   -85501.891 
    1930   -85501.892      327.856    319.81596       4.0982   -8574.9701   -12614.555   -0.3601255   -13109.995   -85501.892 
    1940   -85501.893      327.856    319.82279       4.0982   -8591.4572   -12626.707    -25.04753   -13122.617   -85501.893 
    1950   -85501.894      327.856    319.81626       4.0982    -8575.543   -12614.977   -1.1635097   -13110.489   -85501.894 
    1960   -85501.894      327.856    319.81597       4.0982   -8574.7862   -12614.404 -0.018640923   -13109.936   -85501.894 
    1970   -85501.896      327.856    319.81601       4.0982   -8574.6671   -12614.223   0.21822358   -13109.996   -85501.896 
    1980   -85501.896      327.856    319.81631       4.0982   -8575.3072   -12614.873  -0.65403956   -13110.395   -85501.896 
    1990   -85501.896      327.856     319.8163       4.0982   -8575.2771   -12614.619  -0.69223149    -13110.52   -85501.896 
    2000     -85501.9      327.856    319.81642       4.0982   -8574.9768   -12614.407  0.042239292   -13110.566     -85501.9 
    2010     -85501.9      327.856    319.81739       4.0982   -8577.3365   -12616.148   -3.5028846   -13112.359     -85501.9 
    2020     -85501.9      327.856     319.8176       4.0982   -8577.8388   -12616.508   -4.2613095   -13112.747     -85501.9 
    2030     -85501.9      327.856    319.81604       4.0982   -8574.0957   -12613.687    1.3118445   -13109.912     -85501.9 
    2040     -85501.9      327.856    319.81641       4.0982     -8574.97   -12614.343 0.0050320962   -13110.572     -85501.9 
    2050   -85501.902      327.856    319.81466       4.0982   -8570.4282    -12610.43    6.5417401   -13107.397   -85501.902 
    2060   -85501.902      327.856    319.81657       4.0982   -8575.0511   -12613.847  -0.36822379   -13110.938   -85501.902 
    2070   -85501.902      327.856    319.81662       4.0982    -8575.168   -12613.932  -0.53350587   -13111.039   -85501.902 
    2080   -85501.902      327.856    319.81532       4.0982   -8571.9949   -12611.666    4.2654123   -13108.584   -85501.902 
    2090   -85501.902      327.856    319.81648       4.0982   -8574.8179   -12613.715  0.031019033    -13110.77   -85501.902 
    2100   -85501.902      327.856    319.81649       4.0982   -8574.8347    -12613.73  0.007532652   -13110.782   -85501.902 
    2110   -85501.903      327.856    319.81647       4.0982   -8574.8577   -12613.666 -0.056477726   -13110.851   -85501.903 
    2120   -85501.904      327.856    319.81643       4.0982   -8574.8473   -12613.942 -0.0056295634   -13110.594   -85501.904 
    2130   -85501.904      327.856    319.81639       4.0982   -8574.7813   -12613.807  0.055760624   -13110.593   -85501.904 
    2140   -85501.904      327.856    319.81699       4.0982   -8576.2046   -12614.837   -2.0813124   -13111.695   -85501.904 
    2150   -85501.904      327.856    319.81643       4.0982   -8574.8353    -12613.85 -0.025278474   -13110.631   -85501.904 
    2160   -85501.904      327.856    319.81642       4.0982   -8574.8195   -12613.783 -0.024650671   -13110.651   -85501.904 
    2170   -85501.904      327.856    319.81646       4.0982   -8574.8875   -12613.857  -0.11780433   -13110.688   -85501.904 
    2180   -85501.904      327.856    319.81504       4.0982   -8571.3868   -12611.262    5.1031335   -13108.002   -85501.904 
    2190   -85501.904      327.856    319.81865       4.0982   -8580.1285   -12617.592   -8.0296906   -13114.764   -85501.904 
    2200   -85501.904      327.856    319.81644       4.0982    -8574.763   -12613.643 -0.006515126   -13110.639   -85501.904 
    2210   -85501.905      327.856    319.81641       4.0982    -8574.721   -12613.567  0.035775773   -13110.631   -85501.905 
    2220   -85501.905      327.856    319.81669       4.0982   -8575.3786   -12614.046  -0.95315982   -13111.137   -85501.905 
    2230   -85501.905      327.856    319.81643       4.0982   -8574.7542   -12613.606  -0.01305043   -13110.644   -85501.905 
    2240   -85501.905      327.856     319.8164       4.0982   -8574.6789   -12613.516  0.084904983   -13110.605   -85501.905 
    2250   -85501.905      327.856    319.81648       4.0982   -8574.8765   -12613.654  -0.21523095   -13110.761   -85501.905 
    2260   -85501.905      327.856    319.81652       4.0982   -8574.9758   -12613.701  -0.37497038   -13110.851   -85501.905 
    2270   -85501.905      327.856    319.81684       4.0982   -8575.7401   -12614.272   -1.5189444    -13111.43   -85501.905 
    2280   -85501.905      327.856    319.81675       4.0982   -8575.5394   -12614.127   -1.2195329   -13111.272   -85501.905 
    2290   -85501.905      327.856    319.81619       4.0982   -8574.1463   -12613.156   0.87959059   -13110.162   -85501.905 
    2295   -85501.905      327.856    319.81641       4.0982   -8574.6954   -12613.493  0.031311709   -13110.624   -85501.905 
Loop time of 43.4474 on 8 procs for 2295 steps with 25501 atoms

100.0% CPU use with 8 MPI tasks x no OpenMP threads

Minimization stats:
  Stopping criterion = energy tolerance
  Energy initial, next-to-last, final = 
     -85408.8153505199   -85501.904887935   -85501.904887935
  Force two-norm initial, final = 7451.5526 0.012436386
  Force max component initial, final = 7451.5526 0.008609062
  Final line search alpha, max atom move = 0.10748348 0.00092533193
  Iterations, force evaluations = 2295 4559

MPI task timing breakdown:
Section |  min time  |  avg time  |  max time  |%varavg| %total
---------------------------------------------------------------
Pair    | 39.703     | 40.257     | 40.617     |   5.1 | 92.66
Neigh   | 0.052296   | 0.053297   | 0.055443   |   0.4 |  0.12
Comm    | 0.66144    | 1.0069     | 1.5488     |  31.5 |  2.32
Output  | 0.033321   | 0.033835   | 0.037146   |   0.7 |  0.08
Modify  | 0          | 0          | 0          |   0.0 |  0.00
Other   |            | 2.097      |            |       |  4.83

Nlocal:        3187.62 ave        3200 max        3178 min
Histogram: 1 0 2 0 1 3 0 0 0 1
Nghost:        20096.5 ave       20159 max       20034 min
Histogram: 2 1 0 1 0 1 0 0 1 2
Neighs:         222144 ave      222945 max      221108 min
Histogram: 1 0 1 0 2 0 0 3 0 1
FullNghs:       443719 ave      445345 max      441415 min
Histogram: 1 1 0 1 0 1 0 0 2 2

Total # of neighbors = 3549750
Ave neighs/atom = 139.20042
Neighbor list builds = 7
Dangerous builds = 0
GB energy is 1081.86609307586 mJ/m^2
WARNING: Using 'neigh_modify every 1 delay 0 check yes' setting during minimization (../min.cpp:187)
Setting up cg style minimization ...
  Unit style    : metal
  Current step  : 0
WARNING: Energy due to 3 extra global DOFs will be included in minimizer energies
Per MPI rank memory allocation (min/avg/max) = 14.97 | 14.97 | 14.97 Mbytes
Step PotEng Lx Ly Lz Press Pxx Pyy Pzz c_eatoms 
       0   -85501.905      327.856    319.81641       4.0982   -8574.6954   -12613.493  0.031311709   -13110.624   -85501.905 
      10   -85501.905      327.856    319.81644       4.0982   -8574.7723    -12613.54 -0.090984238   -13110.686   -85501.905 
      20   -85501.905      327.856    319.81618       4.0982   -8574.1101   -12613.072   0.90427804   -13110.163   -85501.905 
      30   -85501.905      327.856    319.81724       4.0982   -8576.6776   -12614.955    -2.942605   -13112.135   -85501.905 
      35   -85501.905      327.856     319.8164       4.0982   -8574.6751   -12613.444  0.038694015    -13110.62   -85501.905 
Loop time of 0.693063 on 8 procs for 35 steps with 25501 atoms

99.8% CPU use with 8 MPI tasks x no OpenMP threads

Minimization stats:
  Stopping criterion = energy tolerance
  Energy initial, next-to-last, final = 
      -85501.904887935  -85501.9050582486  -85501.9050582487
  Force two-norm initial, final = 0.01229119 0.014661185
  Force max component initial, final = 0.0083979531 0.010377923
  Final line search alpha, max atom move = 0.097270063 0.0010094613
  Iterations, force evaluations = 35 70

MPI task timing breakdown:
Section |  min time  |  avg time  |  max time  |%varavg| %total
---------------------------------------------------------------
Pair    | 0.60366    | 0.61286    | 0.62093    |   0.7 | 88.43
Neigh   | 0          | 0          | 0          |   0.0 |  0.00
Comm    | 0.0092815  | 0.016776   | 0.024512   |   3.9 |  2.42
Output  | 0.00044063 | 0.00044764 | 0.00049392 |   0.0 |  0.06
Modify  | 0          | 0          | 0          |   0.0 |  0.00
Other   |            | 0.06298    |            |       |  9.09

Nlocal:        3187.62 ave        3201 max        3177 min
Histogram: 1 0 2 0 1 3 0 0 0 1
Nghost:        20094.1 ave       20155 max       20021 min
Histogram: 1 1 1 0 1 1 0 0 0 3
Neighs:         222125 ave      223103 max      220881 min
Histogram: 1 0 0 1 2 0 1 2 0 1
FullNghs:       444250 ave      446305 max      442009 min
Histogram: 1 0 0 1 2 0 2 1 0 1

Total # of neighbors = 3554002
Ave neighs/atom = 139.36716
Neighbor list builds = 0
Dangerous builds = 0
Changing box ...
WARNING: Resetting image flags for non-periodic dimensions (../domain.cpp:1951)
642 atoms in group frozen
24859 atoms in group tstat
Setting up Verlet run ...
  Unit style    : metal
  Current step  : 0
  Time step     : 0.001
Per MPI rank memory allocation (min/avg/max) = 12.59 | 12.6 | 12.6 Mbytes
Step Time Atoms Temp PotEng KinEng TotEng Density 
       0            0    25501         1500   -85358.078    4944.2005   -80413.877    2.6589565 
    5000            5    25501    763.04509   -82973.861    2515.0986   -80458.762    2.5954267 
   10000           10    25501    770.12964   -82610.824    2538.4502   -80072.374    2.5373481 
   15000           15    25501    769.29095   -82904.334    2535.6858   -80368.648    2.5788728 
   20000           20    25501    767.95536   -83016.473    2531.2835    -80485.19    2.6412187 
   25000           25    25501    766.31609   -82996.294    2525.8803   -80470.414    2.6086266 
   30000           30    25501    763.96984   -82654.698    2518.1467   -80136.551    2.5458048 
   35000           35    25501    772.50188   -82810.607    2546.2695   -80264.338      2.56908 
   40000           40    25501    762.93525   -82994.054    2514.7366   -80479.318    2.6330765 
   45000           45    25501    771.35876   -83021.119    2542.5016   -80478.617     2.621735 
   50000           50    25501    767.31163   -82761.367    2529.1617   -80232.205    2.5555043 
   55000           55    25501    767.12173   -82747.753    2528.5358   -80219.217     2.557006 
   60000           60    25501    768.23187    -82982.69    2532.1949   -80450.495    2.6144341 
   65000           65    25501     771.6894   -82969.016    2543.5914   -80425.424    2.6308798 
   70000           70    25501    767.14484   -82839.825     2528.612   -80311.213    2.5642251 
   75000           75    25501    764.70298   -82711.959    2520.5633   -80191.396    2.5530537 
   80000           80    25501     769.3599   -82930.474    2535.9131   -80394.561    2.6023842 
   85000           85    25501    769.75318   -82959.254    2537.2094   -80422.044     2.635408 
   90000           90    25501    768.22135   -82909.773    2532.1603   -80377.613    2.5870924 
   95000           95    25501    763.00305   -82666.684    2514.9601   -80151.724    2.5495955 
  100000          100    25501    764.58031   -82923.453    2520.1589   -80403.294    2.5856763 
  105000          105    25501    773.29577   -82965.094    2548.8862   -80416.208    2.6363936 
  110000          110    25501    768.80468   -82966.772     2534.083   -80432.689    2.6013004 
  115000          115    25501    765.79934   -82709.273     2524.177   -80185.096     2.551377 
  120000          120    25501    766.98759   -82850.374    2528.0936   -80322.281    2.5733816 
  125000          125    25501    760.95106   -82977.083    2508.1964   -80468.886    2.6306216 
  130000          130    25501    767.61643   -82996.462    2530.1664   -80466.295    2.6133748 
  135000          135    25501    769.30202   -82741.546    2535.7223   -80205.824    2.5582303 
  140000          140    25501    768.16631   -82791.511    2531.9789   -80259.532    2.5614493 
  145000          145    25501    771.28963   -82975.158    2542.2737   -80432.885    2.6229409 
  150000          150    25501    767.06656   -82988.638    2528.3539   -80460.284    2.6263506 
  155000          155    25501    768.35886   -82805.571    2532.6135   -80272.957    2.5677223 
  160000          160    25501    771.92708   -82736.535    2544.3749   -80192.161    2.5559977 
  165000          165    25501    764.51995   -82969.501      2519.96   -80449.541    2.6120998 
  170000          170    25501    770.46887   -82984.284    2539.5684   -80444.716    2.6299538 
  175000          175    25501    761.79307   -82862.119    2510.9718   -80351.147    2.5787229 
  180000          180    25501    767.62768   -82708.787    2530.2035   -80178.583    2.5535259 
  185000          185    25501    770.94826   -82939.797    2541.1485   -80398.648    2.5989994 
  190000          190    25501    774.43179   -82993.986    2552.6307   -80441.355    2.6355691 
  195000          195    25501    763.94144   -82916.471    2518.0531   -80398.418    2.5897594 
  200000          200    25501    767.39564   -82689.356    2529.4386   -80159.917    2.5495819 
  205000          205    25501    765.89181   -82922.109    2524.4818   -80397.627    2.5892988 
  210000          210    25501    767.36583   -82993.002    2529.3404   -80463.662     2.631863 
  215000          215    25501    764.84965   -82941.426    2521.0467   -80420.379    2.5940011 
  220000          220    25501    770.22991   -82738.826    2538.7808   -80200.045    2.5528363 
  225000          225    25501     779.3943   -82863.124    2568.9878   -80294.136    2.5764997 
  230000          230    25501    764.56007   -82990.375    2520.0922   -80470.282    2.6244324 
  235000          235    25501    770.45485   -82968.795    2539.5222   -80429.273    2.6091609 
  240000          240    25501    777.08621   -82772.225    2561.3801   -80210.845    2.5608628 
  245000          245    25501    762.08977   -82819.496    2511.9498   -80307.546    2.5692753 
  250000          250    25501    771.38077   -82993.428    2542.5742   -80450.854    2.6196315 
  255000          255    25501    770.77954   -82970.858    2540.5924   -80430.266    2.6191561 
  260000          260    25501    767.55928   -82804.333     2529.978   -80274.355    2.5667569 
  265000          265    25501    767.32278   -82775.038    2529.1985    -80245.84    2.5618427 
  270000          270    25501    769.17196   -82974.426    2535.2936   -80439.132    2.6097529 
  275000          275    25501    766.20329   -82965.752    2525.5085   -80440.243    2.6251193 
  280000          280    25501    770.79399   -82862.928      2540.64   -80322.288    2.5803539 
  285000          285    25501    765.91922   -82760.028    2524.5721   -80235.456    2.5571118 
  290000          290    25501    772.75306   -82925.399    2547.0974   -80378.301    2.5985642 
  295000          295    25501      773.145   -82953.263    2548.3893   -80404.874     2.627909 
  300000          300    25501    774.61756   -82918.371     2553.243   -80365.128    2.5874412 
  305000          305    25501    770.17397   -82731.291    2538.5964   -80192.695     2.555036 
  310000          310    25501    764.59609   -82912.468    2520.2109   -80392.257    2.5843415 
  315000          315    25501    774.67616   -82976.133    2553.4362   -80422.697    2.6261728 
  320000          320    25501    765.20569   -82951.989    2522.2202   -80429.769    2.5944574 
  325000          325    25501    769.04992   -82741.668    2534.8914   -80206.776    2.5572951 
  330000          330    25501    767.62854   -82878.751    2530.2063   -80348.545    2.5779148 
  335000          335    25501    765.62479   -82976.971    2523.6017    -80453.37    2.6238064 
  340000          340    25501     767.9601   -82957.365    2531.2991   -80426.066    2.6064554 
  345000          345    25501       770.08   -82771.711    2538.2866   -80233.424    2.5621256 
  350000          350    25501    774.74306   -82838.074    2553.6567   -80284.417    2.5718847 
  355000          355    25501    762.74211   -82977.366       2514.1   -80463.266    2.6158299 
  360000          360    25501    768.69255   -82944.577    2533.7134   -80410.864    2.6137788 
  365000          365    25501    763.30589   -82844.176    2515.9583   -80328.217    2.5716759 
  370000          370    25501    771.31063   -82802.933     2542.343    -80260.59    2.5628781 
  375000          375    25501    768.96019   -82966.393    2534.5956   -80431.797    2.6090477 
  380000          380    25501    767.81694   -82980.006    2530.8273   -80449.178    2.6167677 
  385000          385    25501    764.43965   -82863.175    2519.6953   -80343.479    2.5773004 
  390000          390    25501    764.53609   -82775.691    2520.0132   -80255.678    2.5634968 
  395000          395    25501    769.98367   -82959.417    2537.9691   -80421.448    2.6009785 
  400000          400    25501     768.2592    -82966.13     2532.285   -80433.845    2.6236112 
  405000          405    25501    771.50064   -82893.697    2542.9693   -80350.728    2.5859251 
  410000          410    25501    769.75483   -82766.015    2537.2148     -80228.8    2.5634695 
  415000          415    25501     770.9268   -82901.354    2541.0778   -80360.276    2.5897688 
  420000          420    25501    760.24773   -82974.342    2505.8782   -80468.464    2.6194102 
  425000          425    25501    766.98375   -82920.697     2528.081   -80392.616    2.5953544 
  430000          430    25501    766.70129   -82778.777      2527.15   -80251.627    2.5642359 
  435000          435    25501    766.40524   -82857.443    2526.1741   -80331.269    2.5840603 
  440000          440    25501    769.24122   -82974.187    2535.5219   -80438.665    2.6187971 
  445000          445    25501    769.51103   -82951.748    2536.4112   -80415.337    2.6037265 
  450000          450    25501    776.54619   -82792.048    2559.6001   -80232.448    2.5631462 
  455000          455    25501    771.10502   -82853.798    2541.6652   -80312.133    2.5781685 
  460000          460    25501    765.74464   -82963.308    2523.9967   -80439.311    2.6136082 
  465000          465    25501    769.81084    -82948.46    2537.3994    -80411.06    2.6084444 
  470000          470    25501    767.18129   -82810.918    2528.7321   -80282.186    2.5714027 
  475000          475    25501    760.29485   -82838.103    2506.0335   -80332.069    2.5734113 
  480000          480    25501    768.76516   -82963.325    2533.9527   -80429.372    2.6092564 
  485000          485    25501    771.61439   -82945.734    2543.3442   -80402.389    2.6154616 
  490000          490    25501    773.05087   -82857.278     2548.079   -80309.199    2.5793827 
  495000          495    25501    769.15607   -82798.523    2535.2412   -80263.282    2.5666825 
  500000          500    25501    767.15295   -82940.263    2528.6387   -80411.625    2.6005373 
  505000          505    25501     764.1922   -82981.881    2518.8797   -80463.002    2.6183827 
  510000          510    25501    767.57435   -82897.701    2530.0277   -80367.674     2.583632 
  515000          515    25501    771.16804   -82799.163     2541.873    -80257.29    2.5651242 
  520000          520    25501    774.98449   -82917.992    2554.4525    -80363.54    2.5911939 
  525000          525    25501    774.04427   -82959.084    2551.3534    -80407.73    2.6196386 
  530000          530    25501    769.70123   -82916.102    2537.0382   -80379.064     2.588913 
  535000          535    25501    766.70571   -82797.033    2527.1645   -80269.869    2.5672078 
  540000          540    25501    766.21591   -82915.963    2525.5501   -80390.413    2.5861084 
  545000          545    25501    762.75872   -82949.891    2514.1547   -80435.736    2.6184887 
  550000          550    25501    763.44765   -82942.212    2516.4255   -80425.787    2.5963492 
  555000          555    25501    769.02077   -82800.865    2534.7953   -80266.069    2.5693238 
  560000          560    25501    768.92136   -82871.838    2534.4676   -80337.371    2.5823615 
  565000          565    25501    767.24029   -82964.496    2528.9266   -80435.569    2.6164922 
  570000          570    25501    770.55725   -82938.097    2539.8597   -80398.238     2.599144 
  575000          575    25501    766.74902    -82826.82    2527.3073   -80299.513    2.5719573 
  580000          580    25501    772.54543   -82836.341     2546.413   -80289.928    2.5736531 
  585000          585    25501    772.63833   -82971.752    2546.7192   -80425.033    2.6126269 
  590000          590    25501    768.90889   -82930.812    2534.4265   -80396.385      2.60913 
  595000          595    25501    766.30359   -82825.584    2525.8391   -80299.745    2.5761969 
  600000          600    25501    767.09574   -82833.827    2528.4501   -80305.376    2.5732521 
  605000          605    25501    773.85931   -82970.146    2550.7438   -80419.402    2.6042039 
  610000          610    25501    772.26287   -82968.699    2545.4817   -80423.218    2.6141992 
  615000          615    25501    763.79434   -82871.633    2517.5683   -80354.065    2.5824216 
  620000          620    25501    767.67208   -82795.284    2530.3498   -80264.935    2.5712897 
  625000          625    25501     774.3204   -82932.847    2552.2636   -80380.583    2.5966084 
  630000          630    25501    773.35028   -82955.507    2549.0659   -80406.441    2.6159576 
  635000          635    25501    765.67592   -82875.225    2523.7702   -80351.455    2.5856649 
  640000          640    25501    765.28136   -82813.055    2522.4697   -80290.586    2.5676377 
  645000          645    25501    770.46319   -82899.047    2539.5497   -80359.497    2.5927422 
  650000          650    25501     769.9671   -82939.158    2537.9145   -80401.244    2.6149159 
  655000          655    25501    770.10682   -82911.131     2538.375   -80372.755    2.5905384 
  660000          660    25501    767.13867    -82833.62    2528.5916   -80305.028    2.5683591 
  665000          665    25501     766.4524   -82881.543    2526.3296   -80355.213    2.5867343 
  670000          670    25501    756.19735   -82948.841    2492.5276   -80456.314    2.6105659 
  675000          675    25501    760.91667   -82949.685    2508.0831   -80441.602    2.5980508 
  680000          680    25501    764.07826   -82818.853    2518.5041   -80300.349     2.571366 
  685000          685    25501    766.71766   -82870.569    2527.2039   -80343.365    2.5805796 
  690000          690    25501    761.57569   -82943.059    2510.2553   -80432.803    2.6093098 
  695000          695    25501    766.94747   -82947.957    2527.9614   -80419.996    2.6023143 
  700000          700    25501     767.1259   -82838.377    2528.5495   -80309.827    2.5773129 
  705000          705    25501    766.60292   -82853.384    2526.8257   -80326.558    2.5788173 
  710000          710    25501    772.52343   -82964.692    2546.3405   -80418.351    2.6047732 
  715000          715    25501    768.43655   -82916.019    2532.8696    -80383.15    2.6073667 
  720000          720    25501    769.60381   -82868.704     2536.717   -80331.987    2.5786184 
  725000          725    25501    770.05208    -82827.13    2538.1946   -80288.936    2.5741675 
  730000          730    25501    775.82653   -82951.673     2557.228   -80394.445    2.5979876 
  735000          735    25501    768.88491   -82938.665    2534.3475   -80404.318     2.612207 
  740000          740    25501    769.65783   -82877.317    2536.8951   -80340.422    2.5862009 
  745000          745    25501    774.08401   -82808.471    2551.4844   -80256.987    2.5720992 
  750000          750    25501    766.14195   -82909.067    2525.3063   -80383.761    2.5962592 
  755000          755    25501    777.69403   -82959.188    2563.3835   -80395.804    2.6116917 
  760000          760    25501    768.69934   -82915.809    2533.7358   -80382.073    2.5884959 
  765000          765    25501    766.27474   -82831.896     2525.744   -80306.152    2.5718678 
  770000          770    25501    772.29284   -82883.711    2545.5805   -80338.131    2.5936088 
  775000          775    25501    766.49312   -82951.501    2526.4638   -80425.037     2.609824 
  780000          780    25501    763.94333   -82907.871    2518.0594   -80389.811    2.5971306 
  785000          785    25501    765.07663   -82829.913    2521.7949   -80308.119    2.5756115 
  790000          790    25501    768.88312   -82901.587    2534.3416   -80367.245    2.5862228 
  795000          795    25501    764.81703   -82956.317    2520.9392   -80435.378    2.6115172 
  800000          800    25501    768.35654   -82940.017    2532.6059   -80407.411    2.5983948 
  805000          805    25501     770.2844   -82843.291    2538.9604   -80304.331    2.5783191 
  810000          810    25501    765.44588   -82864.297     2523.012   -80341.285    2.5828527 
  815000          815    25501    768.20114   -82949.545    2532.0937   -80417.451    2.6060917 
  820000          820    25501    773.96097    -82934.42    2551.0788   -80383.341    2.6027893 
  825000          825    25501    765.86551   -82850.099    2524.3951   -80325.704    2.5762804 
  830000          830    25501    764.25646    -82864.72    2519.0915   -80345.629    2.5809219 
  835000          835    25501    769.86518   -82909.684    2537.5786   -80372.106    2.6020346 
  840000          840    25501    758.91021   -82936.756    2501.4695   -80435.286    2.6055587 
  845000          845    25501    769.22615   -82851.967    2535.4722   -80316.495    2.5807656 
  850000          850    25501    755.87948   -82842.205    2491.4798   -80350.726    2.5791851 
  855000          855    25501    769.05098   -82933.928    2534.8949   -80399.033     2.600518 
  860000          860    25501    762.76233   -82963.901    2514.1666   -80449.734    2.6057671 
  865000          865    25501    767.46976   -82891.106     2529.683   -80361.423    2.5880323 
  870000          870    25501    770.87514   -82859.301    2540.9075   -80318.394    2.5778542 
  875000          875    25501     771.8937   -82917.284    2544.2648   -80373.019    2.5970112 
  880000          880    25501    765.00967   -82933.761    2521.5742   -80412.187    2.6045044 
  885000          885    25501    761.38204   -82902.593     2509.617   -80392.976    2.5905972 
  890000          890    25501    769.83825   -82842.159    2537.4898   -80304.669    2.5752948 
  895000          895    25501    770.91056   -82929.973    2541.0243   -80388.948    2.5923808 
  900000          900    25501    765.28333   -82950.744    2522.4762   -80428.268    2.6048482 
  905000          905    25501    769.83496   -82927.407     2537.479   -80389.928    2.5953457 
  910000          910    25501    765.56043   -82845.672    2523.3895   -80322.283    2.5768055 
  915000          915    25501    768.15867   -82889.226    2531.9537   -80357.272    2.5843351 
  920000          920    25501    782.25686   -82919.743    2578.4232    -80341.32    2.6046589 
  925000          925    25501    772.65122   -82932.217    2546.7617   -80385.455    2.5977429 
  930000          930    25501     769.8707   -82859.321    2537.5967   -80321.725    2.5773867 
  935000          935    25501    768.49038   -82883.324     2533.047   -80350.277    2.5860247 
  940000          940    25501    769.02765   -82960.419     2534.818   -80425.601    2.6037665 
  945000          945    25501    769.35207   -82945.903    2535.8873   -80410.016    2.6000262 
  950000          950    25501    774.02558   -82870.823    2551.2918   -80319.531    2.5833754 
  955000          955    25501    770.08567   -82873.878    2538.3053   -80335.573    2.5792597 
  960000          960    25501    769.87044   -82933.284    2537.5959   -80395.688    2.6015089 
  965000          965    25501    770.07456    -82952.62    2538.2687   -80414.351    2.6036582 
  970000          970    25501    771.10913   -82877.585    2541.6788   -80335.906    2.5864696 
  975000          975    25501    769.67103   -82854.285    2536.9386   -80317.346    2.5769393 
  980000          980    25501    768.52013   -82916.473    2533.1451   -80383.328    2.5964254 
  985000          985    25501      771.728   -82940.035    2543.7187   -80396.316    2.6061668 
  990000          990    25501    759.51326   -82902.017    2503.4573    -80398.56    2.5881867 
  995000          995    25501     771.7283   -82867.984    2543.7197   -80324.264    2.5785814 
 1000000         1000    25501    764.81346   -82922.166    2520.9274   -80401.238    2.5934275 
 1005000         1005    25501    768.62165   -82934.353    2533.4797   -80400.873     2.606791 
 1010000         1010    25501    764.71864   -82902.322    2520.6149   -80381.707    2.5926255 
 1015000         1015    25501    765.84775   -82833.402    2524.3366   -80309.066    2.5727619 
 1020000         1020    25501    770.50135   -82875.862    2539.6755   -80336.186    2.5922762 
 1025000         1025    25501    763.58753   -82920.318    2516.8866   -80403.431    2.6075232 
 1030000         1030    25501    771.88768   -82906.224     2544.245   -80361.979    2.5933582 
 1035000         1035    25501     761.7845   -82842.465    2510.9436   -80331.522    2.5766311 
 1040000         1040    25501    773.06624   -82888.823    2548.1297   -80340.694    2.5883381 
 1045000         1045    25501    773.22557   -82936.635    2548.6548    -80387.98    2.6052116 
 1050000         1050    25501    772.54359   -82918.565     2546.407   -80372.158     2.596273 
 1055000         1055    25501    769.60511   -82861.613    2536.7214   -80324.891    2.5825753 
 1060000         1060    25501    772.60995   -82898.868    2546.6257   -80352.242      2.58662 
 1065000         1065    25501    768.01539   -82939.379    2531.4814   -80407.897    2.6028876 
 1070000         1070    25501    773.17031   -82927.092    2548.4727   -80378.619    2.5986357 
 1075000         1075    25501    762.13922   -82856.292    2512.1128   -80344.179    2.5827187 
 1080000         1080    25501     771.9606   -82884.751    2544.4854   -80340.265    2.5847127 
 1085000         1085    25501    764.12168   -82930.216    2518.6472   -80411.569     2.599563 
 1090000         1090    25501    770.74499    -82915.37    2540.4785   -80374.892    2.6020293 
 1095000         1095    25501    772.16634   -82877.937    2545.1635   -80332.773    2.5822694 
 1100000         1100    25501    766.97958   -82868.944    2528.0672   -80340.877    2.5813969 
 1105000         1105    25501     771.8419   -82941.315    2544.0941   -80397.221    2.5970427 
 1110000         1110    25501    763.10344   -82935.153     2515.291   -80419.862    2.6031161 
 1115000         1115    25501    770.30983    -82917.81    2539.0442   -80378.766    2.5881413 
 1120000         1120    25501    768.09558   -82884.799    2531.7457   -80353.054    2.5788422 
 1125000         1125    25501    773.37447   -82905.728    2549.1456   -80356.582    2.5932529 
 1130000         1130    25501    767.28568   -82936.798    2529.0762   -80407.722    2.6025159 
 1135000         1135    25501    763.58968    -82927.56    2516.8937   -80410.666    2.5946811 
 1140000         1140    25501    775.17158   -82869.827    2555.0692   -80314.757    2.5800337 
 1145000         1145    25501     766.3251   -82909.311      2525.91   -80383.401    2.5898863 
 1150000         1150    25501    769.30137   -82951.914    2535.7202   -80416.193    2.6024534 
 1155000         1155    25501    769.81937   -82953.296    2537.4276   -80415.868    2.5952239 
 1160000         1160    25501    772.84581   -82864.321    2547.4031   -80316.918    2.5789037 
 1165000         1165    25501    765.11491   -82887.863     2521.921   -80365.942     2.588933 
 1170000         1170    25501      770.509   -82940.188    2539.7007   -80400.487    2.6011924 
 1175000         1175    25501    763.25792   -82921.635    2515.8001   -80405.835    2.5971335 
 1180000         1180    25501    766.87404   -82876.712    2527.7194   -80348.992    2.5823509 
 1185000         1185    25501    764.07442   -82882.667    2518.4914   -80364.176     2.584926 
 1190000         1190    25501    773.68215   -82959.319    2550.1598   -80409.159    2.6013085 
 1195000         1195    25501     763.6222   -82965.483    2517.0009   -80448.482    2.5983206 
 1200000         1200    25501    770.88667   -82885.987    2540.9455   -80345.041     2.584524 
 1205000         1205    25501    774.68124     -82875.4    2553.4529   -80321.947    2.5814866 
 1210000         1210    25501    766.18466   -82927.022    2525.4471   -80401.575    2.5974972 
 1215000         1215    25501    769.01088    -82945.42    2534.7627   -80410.657    2.5999844 
 1220000         1220    25501    771.23671   -82897.383    2542.0993   -80355.283    2.5879589 
 1225000         1225    25501    774.05721   -82890.562     2551.396   -80339.166    2.5808648 
 1230000         1230    25501    772.79421   -82924.284     2547.233   -80377.051    2.5936409 
 1235000         1235    25501    770.02801   -82951.935    2538.1153   -80413.819    2.6010183 
 1240000         1240    25501    766.04466   -82909.466    2524.9856    -80384.48    2.5886709 
 1245000         1245    25501    770.97936   -82857.976    2541.2511   -80316.725     2.582924 
 1250000         1250    25501    766.75911   -82915.381    2527.3405   -80388.041    2.5912915 
 1255000         1255    25501    775.85954   -82933.709    2557.3368   -80376.372    2.6006824 
 1260000         1260    25501    771.79722   -82918.079    2543.9468   -80374.132    2.5919384 
 1265000         1265    25501    760.14267   -82873.854    2505.5319   -80368.322    2.5847942 
 1270000         1270    25501    769.50125   -82897.411     2536.379   -80361.032    2.5903696 
 1275000         1275    25501    771.49808   -82943.977    2542.9608   -80401.016    2.5970764 
 1280000         1280    25501    764.82062   -82905.935     2520.951   -80384.984    2.5948147 
 1285000         1285    25501    765.14062   -82886.124    2522.0058   -80364.118    2.5831462 
 1290000         1290    25501    776.17432   -82904.864    2558.3743    -80346.49    2.5876295 
 1295000         1295    25501    774.41717   -82919.701    2552.5825   -80367.119    2.6002467 
 1300000         1300    25501    775.01093   -82935.297    2554.5396   -80380.758    2.5992213 
 1305000         1305    25501    766.61275   -82901.997    2526.8581   -80375.139    2.5881552 
 1310000         1310    25501    763.42455    -82886.15    2516.3494   -80369.801    2.5869054 
 1315000         1315    25501    768.17316   -82935.801    2532.0014     -80403.8    2.5990732 
 1320000         1320    25501    772.63151   -82914.463    2546.6968   -80367.766    2.5976091 
 1325000         1325    25501    767.08305   -82905.392    2528.4083   -80376.984    2.5891813 
 1330000         1330    25501    765.13087   -82892.475    2521.9736   -80370.501    2.5850383 
 1335000         1335    25501    768.60665   -82925.272    2533.4303   -80391.842     2.597778 
 1340000         1340    25501    768.93867   -82930.557    2534.5247   -80396.033    2.6021876 
 1345000         1345    25501     771.9698   -82880.037    2544.5157   -80335.522    2.5882055 
 1350000         1350    25501    773.01007   -82901.025    2547.9445    -80353.08    2.5849857 
 1355000         1355    25501     768.0993   -82931.005     2531.758   -80399.247    2.5949106 
 1360000         1360    25501    769.60145   -82947.315    2536.7093   -80410.605    2.6005068 
 1365000         1365    25501    769.60774   -82908.792      2536.73   -80372.062    2.5886534 
 1370000         1370    25501    773.12466   -82871.906    2548.3222   -80323.584    2.5826964 
 1375000         1375    25501    769.62768   -82922.267    2536.7957   -80385.471    2.5950189 
 1380000         1380    25501    766.29495   -82953.225    2525.8106   -80427.414    2.5968116 
 1385000         1385    25501    766.92656   -82891.469    2527.8925   -80363.577    2.5875388 
 1390000         1390    25501    770.60261   -82894.417    2540.0092   -80354.408    2.5871678 
 1395000         1395    25501    768.36581   -82916.666    2532.6364   -80384.029    2.5879954 
 1400000         1400    25501    772.10156   -82911.838      2544.95   -80366.888    2.5962373 
 1405000         1405    25501    774.81431   -82912.654    2553.8916   -80358.762    2.5922398 
 1410000         1410    25501    764.06183   -82884.158    2518.4499   -80365.708    2.5856662 
 1415000         1415    25501    768.70601   -82909.686    2533.7578   -80375.929    2.5880856 
 1420000         1420    25501    772.30359   -82920.245    2545.6159   -80374.629    2.5988491 
 1425000         1425    25501      767.081   -82904.575    2528.4015   -80376.174    2.5970521 
 1430000         1430    25501    762.41436   -82884.848    2513.0196   -80371.829    2.5853934 
 1435000         1435    25501    771.45684   -82911.114    2542.8249   -80368.289    2.5880067 
 1440000         1440    25501    765.24284   -82924.788    2522.3427   -80402.445     2.593027 
 1445000         1445    25501    764.97072   -82917.426    2521.4458    -80395.98    2.5986474 
 1450000         1450    25501    767.25804    -82911.63    2528.9851   -80382.645    2.5872596 
 1455000         1455    25501    763.55193   -82904.079    2516.7693   -80387.309    2.5856442 
 1460000         1460    25501    771.73989   -82920.615    2543.7579   -80376.857    2.5935993 
 1465000         1465    25501    771.96996   -82920.382    2544.5162   -80375.865    2.5986495 
 1470000         1470    25501    768.98086   -82916.136    2534.6637   -80381.472    2.5919845 
 1475000         1475    25501    767.46062   -82878.961    2529.6528   -80349.308    2.5868017 
 1480000         1480    25501     772.3723   -82917.504    2545.8424   -80371.662    2.5915461 
 1485000         1485    25501    762.51252   -82917.718    2513.3432   -80404.375    2.5988664 
 1490000         1490    25501    772.28458     -82904.7    2545.5532   -80359.146    2.5922489 
 1495000         1495    25501    768.71947   -82894.936    2533.8022   -80361.134    2.5851843 
 1500000         1500    25501     770.6673   -82907.475    2540.2225   -80367.252    2.5922987 
 1505000         1505    25501     762.3341   -82934.533    2512.7551   -80421.778     2.595888 
 1510000         1510    25501    771.83197   -82902.607    2544.0614   -80358.546    2.5889865 
 1515000         1515    25501    769.46814   -82895.062    2536.2699   -80358.792    2.5882992 
 1520000         1520    25501    771.59867   -82901.809    2543.2924   -80358.516    2.5914637 
 1525000         1525    25501    767.36291   -82950.343    2529.3308   -80421.012    2.5992168 
 1530000         1530    25501    771.16189   -82920.591    2541.8527   -80378.738    2.5923792 
 1535000         1535    25501    769.63409   -82899.437    2536.8169    -80362.62    2.5878303 
 1540000         1540    25501    770.26346   -82897.144    2538.8913   -80358.253    2.5907002 
 1545000         1545    25501    772.88786    -82934.79    2547.5417   -80387.248    2.5987552 
 1550000         1550    25501    769.37869   -82917.645     2535.975    -80381.67    2.5977362 
 1555000         1555    25501    777.37383   -82890.549    2562.3281   -80328.221     2.586281 
 1560000         1560    25501    767.94047   -82885.475    2531.2345    -80354.24    2.5880048 
 1565000         1565    25501     765.3379   -82937.339    2522.6561   -80414.683    2.5945931 
 1570000         1570    25501    771.31348   -82925.953    2542.3523   -80383.601    2.5936142 
 1575000         1575    25501    769.43817   -82911.272    2536.1711   -80375.101    2.5880722 
 1580000         1580    25501    767.64394   -82907.351    2530.2571   -80377.094    2.5876565 
 1585000         1585    25501    768.91548   -82928.234    2534.4482   -80393.785    2.5920012 
 1590000         1590    25501     767.5743   -82931.614    2530.0275   -80401.587    2.5982166 
 1595000         1595    25501     762.1832   -82921.076    2512.2577   -80408.818    2.5945117 
 1600000         1600    25501    769.21687   -82924.168    2535.4416   -80388.727    2.5896352 
 1605000         1605    25501    772.02417   -82900.725    2544.6949    -80356.03    2.5934587 
 1610000         1610    25501    772.93121   -82925.751    2547.6846   -80378.066    2.5991693 
 1615000         1615    25501    762.83869   -82920.629    2514.4183   -80406.211    2.5937624 
 1620000         1620    25501     765.8386   -82903.091    2524.3064   -80378.785    2.5848321 
 1625000         1625    25501    771.05195   -82907.938    2541.4903   -80366.447    2.5903326 
 1630000         1630    25501    772.37308   -82935.712    2545.8449   -80389.867    2.5928657 
 1635000         1635    25501    767.99162   -82929.122     2531.403   -80397.719    2.5941485 
 1640000         1640    25501    772.29911    -82909.91    2545.6011   -80364.309    2.5899147 
 1645000         1645    25501    773.70842   -82912.822    2550.2464   -80362.575    2.5890022 
 1650000         1650    25501    771.32305   -82928.585    2542.3839   -80386.201    2.5948798 
 1655000         1655    25501     765.5614    -82928.09    2523.3927   -80404.698     2.588484 
[...]
 2040000         2040    25501    768.25728   -82927.787    2532.2787   -80395.508    2.5901724 
 2045000         2045    25501    768.32768       -82950    2532.5107   -80417.489     2.593477 
 2050000         2050    25501    768.41276    -82940.19    2532.7912   -80407.399    2.5950618 
 2055000         2055    25501    770.86974   -82910.714    2540.8897   -80369.824    2.5912774 
 2060000         2060    25501    768.61703   -82932.331    2533.4645   -80398.867    2.5870195 
 2065000         2065    25501    765.49618   -82942.638    2523.1778    -80419.46    2.5896565 
 2070000         2070    25501    767.90772   -82955.414    2531.1265   -80424.287    2.5934853 
 2075000         2075    25501    766.10267   -82931.603    2525.1768   -80406.426    2.5885866 
 2080000         2080    25501     771.5244   -82954.301    2543.0476   -80411.253    2.5842405 
 2085000         2085    25501    763.18646   -82934.793    2515.5646   -80419.228    2.5908513 
 2090000         2090    25501    767.44742   -82954.333    2529.6093   -80424.724    2.5985962 
 2095000         2095    25501    764.96621   -82930.927    2521.4309   -80409.496    2.5917992 
 2100000         2100    25501    770.45443   -82906.854    2539.5208   -80367.333    2.5871092 
 2105000         2105    25501    770.82817   -82942.533    2540.7527    -80401.78    2.5896615 
 2110000         2110    25501    769.62595   -82966.804      2536.79   -80430.014    2.5957993 
 2115000         2115    25501    772.75073   -82924.589    2547.0897   -80377.499     2.592288 
 2120000         2120    25501    766.98649   -82923.294      2528.09   -80395.204    2.5871658 
 2125000         2125    25501    763.66483   -82914.983    2517.1414   -80397.842    2.5852523 
 2130000         2130    25501     768.4186   -82940.246    2532.8104   -80407.435    2.5947675 
 2135000         2135    25501    773.37558   -82967.082    2549.1493   -80417.932    2.5919468 
 2140000         2140    25501    772.56925   -82923.501    2546.4915    -80377.01     2.587497 
 2145000         2145    25501    773.00128   -82921.931    2547.9156   -80374.016    2.5893396 
 2150000         2150    25501    768.00836   -82939.691    2531.4582   -80408.233    2.5940498 
 2155000         2155    25501    772.02461   -82935.478    2544.6963   -80390.782    2.5945774 
 2160000         2160    25501     767.8251     -82955.5    2530.8542   -80424.646    2.5909336 
 2165000         2165    25501    772.40566   -82924.349    2545.9523   -80378.396    2.5853873 
 2170000         2170    25501     770.3204   -82936.178     2539.079   -80397.099    2.5923691 
 2175000         2175    25501    768.17777   -82957.046    2532.0166    -80425.03    2.5922034 
 2180000         2180    25501    768.11963   -82904.181     2531.825   -80372.356    2.5910883 
 2185000         2185    25501    768.76207   -82933.504    2533.9426   -80399.561    2.5830483 
 2190000         2190    25501    767.44858   -82929.143    2529.6131    -80399.53    2.5906662 
 2195000         2195    25501    769.26321   -82940.861    2535.5944   -80405.266    2.5967877 
 2200000         2200    25501    771.87966   -82929.902    2544.2186   -80385.683    2.5888614 
 2205000         2205    25501     774.0651     -82919.6    2551.4221   -80368.178    2.5882396 
 2210000         2210    25501    767.16431   -82937.803    2528.6761   -80409.127     2.586649 
 2215000         2215    25501     769.3478   -82926.176    2535.8732   -80390.303    2.5937862 
 2220000         2220    25501    768.59022    -82943.83    2533.3761   -80410.453    2.5924547 
 2225000         2225    25501    773.82167   -82914.795    2550.6197   -80364.176    2.5875032 
 2230000         2230    25501     767.8241   -82931.648    2530.8509   -80400.797    2.5892684 
 2235000         2235    25501    765.41936     -82946.1    2522.9245   -80423.175    2.5939105 
 2240000         2240    25501    769.83061    -82925.83    2537.4646   -80388.366    2.5953224 
 2245000         2245    25501    771.85731   -82935.823    2544.1449   -80391.678    2.5888666 
 2250000         2250    25501    769.10896   -82931.583     2535.086   -80396.497    2.5884435 
 2255000         2255    25501    765.04656   -82925.567    2521.6958   -80403.871    2.5928973 
 2260000         2260    25501    765.22689   -82954.415    2522.2901   -80432.125    2.5902085 
 2265000         2265    25501    765.26442   -82915.923    2522.4138   -80393.509    2.5911433 
 2270000         2270    25501    770.21694   -82914.547     2538.738   -80375.809    2.5847095 
 2275000         2275    25501    764.47575   -82939.713    2519.8143   -80419.899    2.5914787 
 2280000         2280    25501    774.62971   -82947.268    2553.2831   -80393.985     2.593842 
 2285000         2285    25501    763.38699   -82940.979    2516.2256   -80424.753    2.5878669 
 2290000         2290    25501    764.03875   -82929.053    2518.3739   -80410.679     2.586476 
 2295000         2295    25501    767.08673   -82953.459    2528.4204   -80425.039    2.5912831 
 2300000         2300    25501    770.42004   -82945.799    2539.4074   -80406.391    2.5942916 
 2305000         2305    25501    765.23914   -82921.707    2522.3305   -80399.377     2.589482 
 2310000         2310    25501    766.81168   -82928.391    2527.5138   -80400.877    2.5859817 
 2315000         2315    25501    769.73162   -82968.573    2537.1383   -80431.434    2.5892965 
 2320000         2320    25501    769.72925   -82955.729    2537.1305   -80418.598    2.5933231 
 2325000         2325    25501    775.20917   -82934.724    2555.1931   -80379.531    2.5917529 
 2330000         2330    25501    769.94245   -82938.485    2537.8333   -80400.652    2.5856819 
 2335000         2335    25501    766.82475   -82931.026    2527.5569   -80403.469    2.5897199 
 2340000         2340    25501     763.1461   -82913.003    2515.4316   -80397.571    2.5929468 
 2345000         2345    25501    763.43275   -82945.587    2516.3764    -80429.21    2.5918696 
 2350000         2350    25501    763.29566   -82928.691    2515.9246   -80412.766    2.5899388 
 2355000         2355    25501    767.95329   -82932.389    2531.2767   -80401.112    2.5897393 
 2360000         2360    25501    765.21936   -82948.932    2522.2653   -80426.667    2.5929517 
 2365000         2365    25501    770.54905   -82934.257    2539.8327   -80394.424    2.5912649 
 2370000         2370    25501     760.4904   -82931.451     2506.678   -80424.773    2.5881218 
 2375000         2375    25501    766.48437   -82937.273     2526.435   -80410.838    2.5899206 
 2380000         2380    25501    768.62359   -82936.521    2533.4861   -80403.035    2.5928762 
 2385000         2385    25501    772.00479   -82941.549     2544.631   -80396.918    2.5943571 
 2390000         2390    25501    769.20973   -82938.669    2535.4181   -80403.251    2.5918915 
 2395000         2395    25501    770.71745   -82951.282    2540.3878   -80410.894    2.5882799 
 2400000         2400    25501     765.4425    -82938.54    2523.0008   -80415.539    2.5912508 
 2405000         2405    25501    775.44563    -82962.81    2555.9725   -80406.837    2.5925707 
 2410000         2410    25501    775.73003   -82946.632    2556.9099   -80389.722    2.5928296 
 2415000         2415    25501    769.26368    -82921.99    2535.5959   -80386.394    2.5878064 
 2420000         2420    25501     762.2928   -82928.386     2512.619   -80415.767    2.5880799 
 2425000         2425    25501    765.26704   -82944.748    2522.4225   -80422.325    2.5951297 
 2430000         2430    25501     765.0056   -82942.228    2521.5607   -80420.667    2.5899443 
 2435000         2435    25501    766.14579   -82940.314     2525.319   -80414.995    2.5898219 
 2440000         2440    25501    769.67177   -82928.297    2536.9411   -80391.356    2.5898063 
 2445000         2445    25501    767.44211   -82939.383    2529.5918   -80409.791    2.5940574 
 2450000         2450    25501    766.39412   -82928.815    2526.1375   -80402.678    2.5923232 
 2455000         2455    25501     769.7513   -82945.727    2537.2032   -80408.523    2.5913818 
 2460000         2460    25501    770.39681   -82930.195    2539.3309   -80390.864     2.587195 
 2465000         2465    25501    764.28704   -82936.409    2519.1923   -80417.217    2.5921134 
 2470000         2470    25501     774.1892    -82916.39    2551.8311   -80364.559    2.5931551 
 2475000         2475    25501    768.93917   -82943.447    2534.5263   -80408.921    2.5877679 
 2480000         2480    25501    771.38777   -82930.362    2542.5972   -80387.765    2.5910408 
 2485000         2485    25501    769.77937   -82951.451    2537.2957   -80414.155    2.5924374 
 2490000         2490    25501    767.99229   -82944.719    2531.4053   -80413.314    2.5931092 
 2495000         2495    25501    768.00008   -82920.192    2531.4309   -80388.761    2.5913773 
 2500000         2500    25501    764.32251   -82935.422    2519.3092   -80416.113     2.589242 
 2505000         2505    25501    768.72901   -82950.818    2533.8336   -80416.985    2.5928828 
 2510000         2510    25501    775.64747   -82938.771    2556.6378   -80382.133    2.5924096 
 2515000         2515    25501    768.26858   -82939.241     2532.316   -80406.925    2.5880664 
 2520000         2520    25501    761.59279   -82921.254    2510.3117   -80410.943    2.5885718 
 2525000         2525    25501    769.13478   -82944.892    2535.1711   -80409.721    2.5918735 
 2530000         2530    25501    766.12155   -82940.338    2525.2391   -80415.099    2.5915262 
 2535000         2535    25501    769.07097   -82914.719    2534.9607   -80379.758    2.5905806 
 2540000         2540    25501    762.06659   -82933.524    2511.8734   -80421.651    2.5877171 
 2545000         2545    25501    762.90386   -82954.355    2514.6331   -80439.722    2.5917145 
 2550000         2550    25501    759.00368   -82931.329    2501.7776   -80429.551     2.593497 
 2555000         2555    25501    771.36458   -82945.334    2542.5208   -80402.813    2.5870029 
 2560000         2560    25501     769.0404   -82941.754      2534.86   -80406.894    2.5913191 
 2565000         2565    25501    772.00595   -82938.225    2544.6348    -80393.59    2.5951666 
 2570000         2570    25501    769.90673   -82957.745    2537.7155    -80420.03    2.5907346 
 2575000         2575    25501    766.96546   -82938.716    2528.0207   -80410.696    2.5903929 
 2580000         2580    25501    769.18588   -82928.839    2535.3395     -80393.5    2.5868655 
 2585000         2585    25501    761.03456   -82951.237    2508.4716   -80442.765    2.5939811 
 2590000         2590    25501    774.96451   -82956.456    2554.3866   -80402.069     2.594697 
 2595000         2595    25501    770.02949   -82939.943    2538.1202   -80401.823     2.591368 
 2600000         2600    25501    771.78327   -82925.348    2543.9008   -80381.447    2.5891164 
 2605000         2605    25501    774.75386   -82926.197    2553.6923   -80372.504    2.5917077 
 2610000         2610    25501     763.7482   -82929.945    2517.4162   -80412.528    2.5937519 
 2615000         2615    25501    761.94639   -82920.032    2511.4772   -80408.555    2.5901802 
 2620000         2620    25501    767.25456   -82942.784    2528.9736    -80413.81    2.5888359 
 2625000         2625    25501    772.29447   -82942.809    2545.5858   -80397.223    2.5920657 
 2630000         2630    25501    769.94712   -82929.482    2537.8486   -80391.633     2.588587 
 2635000         2635    25501    771.97763   -82933.608    2544.5415   -80389.066    2.5898321 
 2640000         2640    25501    771.29312   -82946.768    2542.2852   -80404.483    2.5890583 
 2645000         2645    25501     771.0895   -82942.322    2541.6141   -80400.708    2.5893377 
 2650000         2650    25501    767.96244   -82936.943    2531.3069   -80405.636    2.5965018 
 2655000         2655    25501    768.31413   -82917.093    2532.4661   -80384.627    2.5901949 
 2660000         2660    25501    772.61074   -82923.338    2546.6283    -80376.71    2.5901579 
 2665000         2665    25501    768.53381   -82928.447    2533.1902   -80395.256    2.5904051 
 2670000         2670    25501    769.97255   -82958.481    2537.9325   -80420.549     2.589382 
 2675000         2675    25501    767.10007   -82951.694    2528.4644    -80423.23    2.5932747 
 2680000         2680    25501     770.1891   -82957.762    2538.6462   -80419.116    2.5910932 
 2685000         2685    25501    766.46661   -82937.806    2526.3764   -80411.429    2.5845352 
 2690000         2690    25501    766.17602   -82960.435    2525.4186   -80435.016    2.5911718 
 2695000         2695    25501    766.83792   -82941.538    2527.6003   -80413.938    2.5939184 
 2700000         2700    25501    762.74749    -82940.99    2514.1177   -80426.872    2.5931556 
 2705000         2705    25501    769.98079   -82948.169    2537.9596   -80410.209    2.5862472 
 2710000         2710    25501    771.34557   -82943.006    2542.4581   -80400.548    2.5857581 
 2715000         2715    25501     775.9167   -82964.068    2557.5252   -80406.543    2.5906917 
 2720000         2720    25501    761.51713   -82947.171    2510.0623   -80437.109     2.589069 
 2725000         2725    25501    765.75661    -82941.89    2524.0362   -80417.854    2.5872069 
 2730000         2730    25501     773.9601   -82941.334     2551.076   -80390.258    2.5852213 
 2735000         2735    25501    770.24684   -82955.903    2538.8366   -80417.066    2.5888216 
 2740000         2740    25501    768.44369   -82941.774    2532.8931   -80408.881    2.5862648 
 2745000         2745    25501    774.65212   -82928.767     2553.357    -80375.41    2.5898154 
 2750000         2750    25501    772.04521   -82944.504    2544.7642    -80399.74    2.5816789 
 2755000         2755    25501    777.03799   -82966.005    2561.2211   -80404.784    2.5839899 
 2760000         2760    25501    764.83383   -82961.724    2520.9946   -80440.729    2.5910072 
 2765000         2765    25501    772.43301   -82928.725    2546.0425   -80382.682    2.5896856 
 2770000         2770    25501    765.03411   -82926.823    2521.6547   -80405.168    2.5886596 
 2775000         2775    25501    766.35171   -82940.121    2525.9977   -80414.123    2.5890391 
 2780000         2780    25501    768.79132    -82949.95     2534.039   -80415.911    2.5924853 
 2785000         2785    25501     760.7613   -82923.314     2507.571   -80415.743    2.5883379 
 2790000         2790    25501    768.69999   -82927.239     2533.738   -80393.501    2.5846314 
 2795000         2795    25501    765.97368   -82932.185    2524.7517   -80407.434     2.590977 
 2800000         2800    25501    767.65132   -82963.382    2530.2814   -80433.101     2.592058 
 2805000         2805    25501    763.22925   -82937.828    2515.7056   -80422.122    2.5905687 
 2810000         2810    25501    769.08257   -82926.404     2534.999   -80391.405    2.5861602 
 2815000         2815    25501    760.99177   -82935.864    2508.3306   -80427.533    2.5917348 
 2820000         2820    25501     769.8114   -82922.009    2537.4013   -80384.608    2.5885774 
 2825000         2825    25501    771.38079    -82950.87    2542.5742   -80408.295    2.5909498 
 2830000         2830    25501    765.55295   -82911.644    2523.3649   -80388.279    2.5839411 
 2835000         2835    25501    773.44318   -82953.515    2549.3721   -80404.143    2.5911081 
 2840000         2840    25501    764.08823    -82928.18     2518.537   -80409.643    2.5932521 
 2845000         2845    25501    766.10777   -82955.331    2525.1936   -80430.137    2.5894338 
 2850000         2850    25501    764.11133   -82919.938    2518.6131   -80401.325    2.5905164 
 2855000         2855    25501    766.27562   -82942.155    2525.7469   -80416.408    2.5901291 
 2860000         2860    25501    770.26942   -82928.698     2538.911   -80389.787    2.5933049 
 2865000         2865    25501    762.29392   -82951.518    2512.6227   -80438.896     2.588452 
 2870000         2870    25501    766.06428   -82912.711    2525.0503    -80387.66    2.5896607 
 2875000         2875    25501    771.34711   -82922.836    2542.4632   -80380.373    2.5910728 
 2880000         2880    25501    766.06559   -82956.814    2525.0546   -80431.759    2.5904501 
 2885000         2885    25501    776.37124   -82918.877    2559.0234   -80359.853     2.590074 
 2890000         2890    25501    770.13623   -82979.396     2538.472   -80440.924    2.5908654 
 2895000         2895    25501     763.6524     -82943.1    2517.1004   -80425.999    2.5881589 
 2900000         2900    25501    774.30491   -82940.969    2552.2125   -80388.757    2.5905157 
 2905000         2905    25501    767.46878   -82939.227    2529.6797   -80409.548    2.5900937 
 2910000         2910    25501    769.05201   -82917.131    2534.8982   -80382.233    2.5891719 
 2915000         2915    25501    761.78288   -82937.289    2510.9382   -80426.351    2.5890879 
 2920000         2920    25501    771.53192   -82942.383    2543.0724   -80399.311    2.5887716 
 2925000         2925    25501    769.20765   -82937.375    2535.4113   -80401.964    2.5919136 
 2930000         2930    25501    775.19991   -82938.673    2555.1626   -80383.511    2.5847572 
 2935000         2935    25501    767.43616   -82943.863    2529.5722   -80414.291    2.5914318 
 2940000         2940    25501    767.95123   -82939.026    2531.2699   -80407.756    2.5904032 
 2945000         2945    25501    766.50166   -82952.775    2526.4919   -80426.283    2.5882488 
 2950000         2950    25501    772.37326   -82937.829    2545.8455   -80391.984    2.5862957 
 2955000         2955    25501    770.40827   -82957.342    2539.3687   -80417.974    2.5876956 
 2960000         2960    25501    768.86058    -82958.61    2534.2673   -80424.343    2.5918225 
 2965000         2965    25501    763.50794   -82951.897    2516.6242   -80435.273     2.586211 
 2970000         2970    25501    778.28953   -82930.008    2565.3464   -80364.662    2.5902718 
 2975000         2975    25501    768.92003   -82946.323    2534.4632    -80411.86    2.5860045 
 2980000         2980    25501    768.00911    -82947.69    2531.4607    -80416.23    2.5888507 
 2985000         2985    25501    765.19815   -82966.211    2522.1954   -80444.016    2.5903349 
 2990000         2990    25501    767.59798   -82943.053    2530.1056   -80412.948    2.5855018 
 2995000         2995    25501    768.90751   -82939.191     2534.422   -80404.769    2.5868265 
 3000000         3000    25501     774.2269   -82921.069    2551.9554   -80369.114    2.5861178 
Loop time of 29957.6 on 8 procs for 3000000 steps with 25501 atoms

Performance: 8.652 ns/day, 2.774 hours/ns, 100.142 timesteps/s
100.0% CPU use with 8 MPI tasks x no OpenMP threads

MPI task timing breakdown:
Section |  min time  |  avg time  |  max time  |%varavg| %total
---------------------------------------------------------------
Pair    | 27862      | 28334      | 28636      | 151.7 | 94.58
Neigh   | 409.42     | 427.27     | 445.7      |  55.5 |  1.43
Comm    | 530.64     | 810.41     | 1294.2     | 865.3 |  2.71
Output  | 0.71513    | 0.71705    | 0.72839    |   0.5 |  0.00
Modify  | 232.19     | 266.01     | 321.8      | 223.8 |  0.89
Other   |            | 118.8      |            |       |  0.40

Nlocal:        3187.62 ave        3216 max        3112 min
Histogram: 1 0 0 1 0 0 0 0 2 4
Nghost:        17570.6 ave       18624 max       16255 min
Histogram: 2 0 1 1 0 0 0 0 1 3
Neighs:         220216 ave      224479 max      211332 min
Histogram: 1 1 0 0 0 0 1 1 0 4
FullNghs:       444250 ave      446305 max      442009 min
Histogram: 1 0 0 1 2 0 2 1 0 1

Total # of neighbors = 3554002
Ave neighs/atom = 139.36716
Neighbor list builds = 59475
Dangerous builds = 0
All done
Total wall time: 8:20:15
