LAMMPS (7 Jan 2022)
Lattice spacing in x,y,z = 4.1076 4.1076 4.1076
Created orthogonal box = (-123.228 -123.228 0) to (123.228 123.228 4.1076)
  2 by 4 by 1 MPI processor grid
Lattice spacing in x,y,z = 5.1957487 5.1957487 4.1076
Created 14365 atoms
  using lattice units in orthogonal box = (-123.228 -123.228 0) to (123.228 123.228 4.1076)
  create_atoms CPU = 0.001 seconds
Deleted 1784 atoms, new total = 12581
Lattice spacing in x,y,z = 5.1957487 5.1957487 4.1076
Created 1784 atoms
  using lattice units in orthogonal box = (-123.228 -123.228 0) to (123.228 123.228 4.1076)
  create_atoms CPU = 0.000 seconds
12581 atoms in group large
1784 atoms in group small
Displacing atoms ...
System init for delete_atoms ...
Neighbor list info ...
  update every 1 steps, delay 10 steps, check yes
  max neighbors/atom: 2000, page size: 100000
  master list distance cutoff = 8.28721
  ghost atom cutoff = 8.28721
  binsize = 4.143605, bins = 60 60 1
  2 neighbor lists, perpetual/occasional/extra = 1 1 0
  (1) command delete_atoms, occasional
      attributes: full, newton on
      pair build: full/bin/atomonly
      stencil: full/bin/3d
      bin: standard
  (2) pair eam/alloy, perpetual
      attributes: half, newton on
      pair build: half/bin/atomonly/newton
      stencil: half/bin/3d
      bin: standard
Deleted 1 atoms, new total = 14364
WARNING: Using 'neigh_modify every 1 delay 0 check yes' setting during minimization (../min.cpp:187)
Neighbor list info ...
  update every 1 steps, delay 0 steps, check yes
  max neighbors/atom: 2000, page size: 100000
  master list distance cutoff = 8.28721
  ghost atom cutoff = 8.28721
  binsize = 4.143605, bins = 60 60 1
  2 neighbor lists, perpetual/occasional/extra = 1 1 0
  (1) pair eam/alloy, perpetual
      attributes: half, newton on
      pair build: half/bin/atomonly/newton
      stencil: half/bin/3d
      bin: standard
  (2) compute centro/atom, occasional
      attributes: full, newton on
      pair build: full/bin/atomonly
      stencil: full/bin/3d
      bin: standard
Setting up cg style minimization ...
  Unit style    : metal
  Current step  : 0
Per MPI rank memory allocation (min/avg/max) = 8.502 | 8.503 | 8.504 Mbytes
Step PotEng Lx Ly Lz Press Pxx Pyy Pzz c_eatoms 
       0   -47816.836      246.456      246.456       4.1076   -30321.581   -28690.549   -30297.171   -31977.022   -47816.836 
      10   -48031.112      246.456      246.456       4.1076   -29402.539   -28157.551   -29554.671   -30495.394   -48031.112 
      20    -48041.42      246.456      246.456       4.1076   -29260.366   -27989.682   -29293.088   -30498.329    -48041.42 
      30   -48044.867      246.456      246.456       4.1076   -29191.345   -27888.718   -29182.796   -30502.521   -48044.867 
      40   -48047.159      246.456      246.456       4.1076   -29147.092    -27809.05   -29122.919   -30509.306   -48047.159 
      50   -48048.613      246.456      246.456       4.1076   -29212.482   -27863.925   -29197.581   -30575.941   -48048.613 
      60   -48049.767      246.456      246.456       4.1076   -29277.042   -27912.675   -29280.596   -30637.854   -48049.767 
      70   -48051.088      246.456      246.456       4.1076   -29368.737   -28020.698   -29362.904    -30722.61   -48051.088 
      80   -48052.484      246.456      246.456       4.1076   -29468.173   -28121.589   -29482.514   -30800.416   -48052.484 
      90   -48053.759      246.456      246.456       4.1076   -29583.211   -28225.596   -29622.584   -30901.454   -48053.759 
     100   -48054.539      246.456      246.456       4.1076    -29680.74   -28313.099   -29757.887   -30971.234   -48054.539 
     110   -48055.297      246.456      246.456       4.1076   -29721.349   -28353.906   -29798.572   -31011.569   -48055.297 
     120   -48056.211      246.456      246.456       4.1076   -29757.098   -28377.066   -29854.552   -31039.676   -48056.211 
     130    -48056.66      246.456      246.456       4.1076   -29795.551   -28405.454   -29910.863   -31070.336    -48056.66 
     140   -48056.793      246.456      246.456       4.1076   -29803.049   -28420.557   -29914.696   -31073.895   -48056.793 
     150   -48056.915      246.456      246.456       4.1076   -29819.042   -28450.178   -29928.007   -31078.941   -48056.915 
     160   -48056.992      246.456      246.456       4.1076   -29828.235   -28469.048   -29933.768    -31081.89   -48056.992 
     170   -48057.138      246.456      246.456       4.1076   -29824.366   -28471.998   -29917.649    -31083.45   -48057.138 
     180   -48057.266      246.456      246.456       4.1076   -29817.632   -28467.279   -29907.903   -31077.713   -48057.266 
     190   -48057.317      246.456      246.456       4.1076   -29816.225    -28466.96   -29909.866   -31071.849   -48057.317 
     200   -48057.356      246.456      246.456       4.1076   -29811.713   -28462.784   -29907.147   -31065.208   -48057.356 
     210   -48057.377      246.456      246.456       4.1076   -29813.423   -28463.343   -29908.805   -31068.122   -48057.377 
     220   -48057.395      246.456      246.456       4.1076   -29814.142   -28463.732   -29909.482   -31069.211   -48057.395 
     230   -48057.409      246.456      246.456       4.1076   -29813.465   -28463.227   -29909.251   -31067.917   -48057.409 
     240   -48057.426      246.456      246.456       4.1076   -29814.759   -28465.882   -29910.367   -31068.026   -48057.426 
     250   -48057.453      246.456      246.456       4.1076   -29811.635    -28469.24   -29899.916    -31065.75   -48057.453 
     260   -48057.498      246.456      246.456       4.1076   -29810.822   -28471.209   -29896.602   -31064.656   -48057.498 
     270   -48057.539      246.456      246.456       4.1076    -29805.12   -28466.937   -29887.132    -31061.29   -48057.539 
     280    -48057.55      246.456      246.456       4.1076   -29806.792   -28469.982   -29889.034   -31061.361    -48057.55 
     290   -48057.553      246.456      246.456       4.1076   -29807.811   -28471.557   -29889.505   -31062.371   -48057.553 
     300   -48057.557      246.456      246.456       4.1076   -29807.045   -28473.022   -29887.898   -31060.215   -48057.557 
     310    -48057.56      246.456      246.456       4.1076   -29805.098   -28475.482   -29884.152   -31055.662    -48057.56 
     320   -48057.568      246.456      246.456       4.1076   -29802.919   -28483.659   -29874.794   -31050.303   -48057.568 
     330   -48057.596      246.456      246.456       4.1076   -29800.201   -28480.006   -29871.126   -31049.473   -48057.596 
     340   -48057.601      246.456      246.456       4.1076   -29800.449   -28477.493   -29871.725    -31052.13   -48057.601 
     350   -48057.607      246.456      246.456       4.1076   -29800.768   -28476.748   -29868.767   -31056.788   -48057.607 
     360   -48057.636      246.456      246.456       4.1076   -29799.372   -28476.996   -29863.478   -31057.641   -48057.636 
     370    -48057.64      246.456      246.456       4.1076   -29799.566   -28476.649   -29863.682   -31058.367    -48057.64 
     380   -48057.642      246.456      246.456       4.1076   -29799.963    -28477.32   -29864.068     -31058.5   -48057.642 
     390   -48057.643      246.456      246.456       4.1076   -29800.531   -28479.172   -29863.788   -31058.633   -48057.643 
     400   -48057.659      246.456      246.456       4.1076   -29797.041   -28477.298   -29855.638   -31058.189   -48057.659 
     410   -48057.685      246.456      246.456       4.1076    -29800.11    -28480.84   -29859.511   -31059.981   -48057.685 
     420   -48057.702      246.456      246.456       4.1076   -29798.232   -28476.102   -29859.385   -31059.209   -48057.702 
     430   -48057.707      246.456      246.456       4.1076     -29796.5   -28472.637   -29858.578   -31058.285   -48057.707 
     440   -48057.711      246.456      246.456       4.1076   -29797.587   -28474.505   -29858.926   -31059.331   -48057.711 
     450   -48057.715      246.456      246.456       4.1076   -29799.396   -28476.918   -29860.221    -31061.05   -48057.715 
     460   -48057.718      246.456      246.456       4.1076    -29799.44   -28477.284     -29859.8   -31061.235   -48057.718 
     470   -48057.724      246.456      246.456       4.1076   -29799.874   -28480.212   -29859.514   -31059.897   -48057.724 
     480   -48057.731      246.456      246.456       4.1076   -29803.733   -28489.754   -29860.132   -31061.314   -48057.731 
     490   -48057.735      246.456      246.456       4.1076   -29803.863   -28492.069   -29859.009   -31060.511   -48057.735 
     500    -48057.74      246.456      246.456       4.1076    -29803.61   -28494.524   -29857.292   -31059.014    -48057.74 
     510   -48057.746      246.456      246.456       4.1076   -29807.199   -28502.861   -29858.347   -31060.388   -48057.746 
     520   -48057.808      246.456      246.456       4.1076   -29803.029   -28510.462   -29843.915   -31054.709   -48057.808 
     530   -48057.858      246.456      246.456       4.1076   -29804.913   -28515.126   -29843.154   -31056.459   -48057.858 
     540   -48057.927      246.456      246.456       4.1076   -29795.552    -28511.44   -29820.203   -31055.014   -48057.927 
     550   -48057.957      246.456      246.456       4.1076   -29795.943   -28513.267   -29821.756   -31052.805   -48057.957 
     560   -48057.991      246.456      246.456       4.1076   -29792.284   -28513.781   -29813.065   -31050.007   -48057.991 
     570   -48058.005      246.456      246.456       4.1076   -29792.812   -28513.989   -29813.018   -31051.429   -48058.005 
     580   -48058.008      246.456      246.456       4.1076   -29792.687   -28514.523   -29812.564   -31050.972   -48058.008 
     590    -48058.01      246.456      246.456       4.1076   -29792.545   -28515.747   -29812.242   -31049.647    -48058.01 
     600   -48058.012      246.456      246.456       4.1076   -29792.985   -28517.847   -29811.874   -31049.232   -48058.012 
     610   -48058.014      246.456      246.456       4.1076   -29793.772   -28519.852   -29811.701   -31049.764   -48058.014 
     620   -48058.015      246.456      246.456       4.1076   -29793.823   -28521.566   -29810.568   -31049.335   -48058.015 
     630   -48058.016      246.456      246.456       4.1076   -29793.683   -28522.928   -29809.053   -31049.068   -48058.016 
     640   -48058.017      246.456      246.456       4.1076   -29793.814    -28523.23   -29808.388   -31049.823   -48058.017 
     650   -48058.017      246.456      246.456       4.1076   -29794.166   -28523.978   -29808.313   -31050.208   -48058.017 
     660   -48058.018      246.456      246.456       4.1076   -29794.081   -28524.277   -29807.746   -31050.221   -48058.018 
     670   -48058.018      246.456      246.456       4.1076   -29794.245   -28524.453   -29807.804   -31050.478   -48058.018 
     680   -48058.018      246.456      246.456       4.1076   -29794.299   -28524.575   -29807.743   -31050.579   -48058.018 
     690   -48058.018      246.456      246.456       4.1076   -29794.306   -28524.737   -29807.674   -31050.509   -48058.018 
     700   -48058.018      246.456      246.456       4.1076   -29794.255   -28524.896   -29807.523   -31050.347   -48058.018 
     710   -48058.018      246.456      246.456       4.1076   -29794.229   -28524.857   -29807.525   -31050.305   -48058.018 
     720   -48058.018      246.456      246.456       4.1076   -29794.233   -28524.884    -29807.51   -31050.305   -48058.018 
     730   -48058.018      246.456      246.456       4.1076   -29794.232   -28524.892   -29807.496   -31050.309   -48058.018 
     740   -48058.018      246.456      246.456       4.1076   -29794.243   -28524.886   -29807.515   -31050.329   -48058.018 
     750   -48058.018      246.456      246.456       4.1076   -29794.243   -28524.877   -29807.504   -31050.349   -48058.018 
     760   -48058.018      246.456      246.456       4.1076   -29794.265   -28524.883    -29807.52   -31050.392   -48058.018 
     770   -48058.018      246.456      246.456       4.1076    -29794.26   -28524.862   -29807.523   -31050.394   -48058.018 
     780   -48058.018      246.456      246.456       4.1076   -29794.257   -28524.864   -29807.514   -31050.393   -48058.018 
     790   -48058.018      246.456      246.456       4.1076   -29794.256   -28524.863   -29807.512   -31050.394   -48058.018 
     800   -48058.018      246.456      246.456       4.1076   -29794.261   -28524.874   -29807.514   -31050.395   -48058.018 
     810   -48058.018      246.456      246.456       4.1076   -29794.261   -28524.879   -29807.511   -31050.392   -48058.018 
     820   -48058.018      246.456      246.456       4.1076   -29794.261   -28524.887   -29807.509   -31050.388   -48058.018 
     830   -48058.018      246.456      246.456       4.1076   -29794.263   -28524.893   -29807.507    -31050.39   -48058.018 
     840   -48058.018      246.456      246.456       4.1076   -29794.265   -28524.895   -29807.508   -31050.391   -48058.018 
     850   -48058.018      246.456      246.456       4.1076   -29794.264   -28524.901   -29807.503   -31050.389   -48058.018 
     860   -48058.018      246.456      246.456       4.1076   -29794.266   -28524.906   -29807.502   -31050.389   -48058.018 
     870   -48058.018      246.456      246.456       4.1076   -29794.267   -28524.908   -29807.502   -31050.391   -48058.018 
     880   -48058.018      246.456      246.456       4.1076   -29794.266   -28524.907   -29807.501   -31050.391   -48058.018 
     890   -48058.018      246.456      246.456       4.1076   -29794.267   -28524.907   -29807.501   -31050.392   -48058.018 
     895   -48058.018      246.456      246.456       4.1076   -29794.266   -28524.907   -29807.501   -31050.392   -48058.018 
Loop time of 9.56947 on 8 procs for 895 steps with 14364 atoms

99.6% CPU use with 8 MPI tasks x no OpenMP threads

Minimization stats:
  Stopping criterion = energy tolerance
  Energy initial, next-to-last, final = 
     -47816.8364612526   -48058.018133486   -48058.018133486
  Force two-norm initial, final = 93.08651 4.0555261e-05
  Force max component initial, final = 17.165707 1.0759238e-05
  Final line search alpha, max atom move = 1 1.0759238e-05
  Iterations, force evaluations = 895 1717

MPI task timing breakdown:
Section |  min time  |  avg time  |  max time  |%varavg| %total
---------------------------------------------------------------
Pair    | 8.3053     | 8.3692     | 8.4753     |   1.9 | 87.46
Neigh   | 0.041879   | 0.042282   | 0.042726   |   0.1 |  0.44
Comm    | 0.186      | 0.27047    | 0.35445    |   9.1 |  2.83
Output  | 0.62963    | 0.65144    | 0.73194    |   3.9 |  6.81
Modify  | 0          | 0          | 0          |   0.0 |  0.00
Other   |            | 0.2361     |            |       |  2.47

Nlocal:         1795.5 ave        1802 max        1786 min
Histogram: 2 0 0 0 1 0 1 1 1 2
Nghost:        12327.1 ave       12408 max       12257 min
Histogram: 1 1 1 0 1 1 1 1 0 1
Neighs:         124671 ave      125256 max      123479 min
Histogram: 1 0 0 1 0 1 0 1 2 2
FullNghs:       249343 ave      250564 max      247201 min
Histogram: 1 0 0 1 1 0 1 0 2 2

Total # of neighbors = 1994744
Ave neighs/atom = 138.87107
Neighbor list builds = 10
Dangerous builds = 0
WARNING: Using 'neigh_modify every 1 delay 0 check yes' setting during minimization (../min.cpp:187)
Setting up cg style minimization ...
  Unit style    : metal
  Current step  : 0
WARNING: Energy due to 3 extra global DOFs will be included in minimizer energies
Per MPI rank memory allocation (min/avg/max) = 7.115 | 7.115 | 7.116 Mbytes
Step PotEng Lx Ly Lz Press Pxx Pyy Pzz c_eatoms 
       0   -48058.018      246.456      246.456       4.1076   -29794.266   -28524.907   -29807.501   -31050.392   -48058.018 
      10   -48096.002      246.456    243.99144       4.1076   -22506.269   -23135.114   -18941.279   -25442.413   -48096.002 
      20   -48116.831      246.456    241.52688       4.1076    -14989.18   -17569.526   -7731.8391   -19666.175   -48116.831 
      30   -48121.264      246.456     239.8499       4.1076   -9752.8127   -13645.611   -22.049123   -15590.778   -48121.264 
      40   -48121.543      246.456    239.81962       4.1076   -9692.7415   -13625.809    52.691594   -15505.108   -48121.543 
      50   -48121.662      246.456    239.81418       4.1076   -9704.0167   -13626.298    2.9949446   -15488.747   -48121.662 
      60   -48121.721      246.456    239.81634       4.1076   -9726.8614   -13638.162   -46.272048    -15496.15   -48121.721 
      70    -48121.75      246.456    239.80226       4.1076   -9690.5794   -13606.029   -1.5419839   -15464.167    -48121.75 
      80   -48121.774      246.456    239.79889       4.1076   -9685.4826   -13602.388    3.5134011   -15457.573   -48121.774 
      90   -48121.798      246.456    239.80387       4.1076   -9708.2805   -13616.685   -35.803457   -15472.353   -48121.798 
     100   -48121.813      246.456    239.79436       4.1076   -9682.3392   -13594.409    -1.387037   -15451.222   -48121.813 
     110   -48121.826      246.456    239.79225       4.1076   -9678.9168   -13591.907    2.3644952   -15447.208   -48121.826 
     120   -48121.842      246.456    239.79761       4.1076   -9700.4997   -13606.094    -33.04602   -15462.359   -48121.842 
     130   -48121.852      246.456    239.78933       4.1076   -9677.1983   -13586.446    -1.181311   -15443.968   -48121.852 
     140   -48121.863      246.456    239.78742       4.1076   -9673.6235   -13583.827    3.1813736   -15440.225   -48121.863 
     150   -48121.916      246.456    239.75173       4.1076   -9571.3056   -13501.054    146.96202   -15359.824   -48121.916 
     160   -48122.037      246.456    239.75303       4.1076   -9588.3269    -13510.22    115.66073   -15370.421   -48122.037 
     170   -48122.201      246.456    239.82952       4.1076   -9839.4492   -13703.955   -251.56738   -15562.825   -48122.201 
     180   -48122.223      246.456    239.78198       4.1076    -9689.379   -13593.676   -25.448241   -15449.013   -48122.223 
     190   -48122.273      246.456    239.77557       4.1076   -9669.7005   -13582.721    6.9861329   -15433.366   -48122.273 
     200    -48122.31      246.456    239.78028       4.1076   -9686.8372   -13595.728    -17.95514   -15446.829    -48122.31 
     210   -48122.321      246.456    239.77723       4.1076   -9678.2021    -13590.15   -4.1445464   -15440.312   -48122.321 
     220   -48122.321      246.456    239.77985       4.1076   -9686.7953   -13596.999    -16.59692    -15446.79   -48122.321 
     230   -48122.335      246.456     239.7749       4.1076    -9672.815   -13588.307    6.0329533   -15436.171   -48122.335 
     240   -48122.341      246.456    239.77742       4.1076   -9684.3939   -13600.621   -7.8483275   -15444.712   -48122.341 
     250   -48122.429      246.456    239.77463       4.1076   -9682.6249   -13599.385    -5.844272   -15442.645   -48122.429 
     260   -48122.431      246.456    239.77334       4.1076   -9679.1775   -13596.127   -1.3839058   -15440.021   -48122.431 
     270   -48122.437      246.456    239.76927       4.1076   -9666.3246   -13587.438    18.683812    -15430.22   -48122.437 
     280   -48122.445      246.456    239.77345       4.1076   -9680.1993    -13596.21   -3.1126339   -15441.275   -48122.445 
     290   -48122.448      246.456    239.77278       4.1076   -9678.2866   -13595.025  -0.10568169   -15439.729   -48122.448 
     300    -48122.45      246.456    239.77224       4.1076   -9676.8986   -13593.326    1.5019204   -15438.871    -48122.45 
     310   -48122.453      246.456    239.77413       4.1076   -9683.3047   -13597.828   -8.3072666   -15443.779   -48122.453 
     320   -48122.455      246.456    239.77243       4.1076   -9678.0064   -13594.117  -0.31445662   -15439.588   -48122.455 
     330   -48122.457      246.456      239.772       4.1076   -9676.9275   -13592.765   0.88770831   -15438.905   -48122.457 
     340   -48122.459      246.456    239.77428       4.1076   -9684.5775   -13598.204   -10.795342   -15444.733   -48122.459 
     350   -48122.461      246.456    239.77204       4.1076   -9677.5187   -13593.136  -0.21634638   -15439.203   -48122.461 
     360   -48122.462      246.456    239.77169       4.1076   -9676.6603   -13592.008   0.69072362   -15438.664   -48122.462 
     370   -48122.464      246.456    239.77432       4.1076   -9685.4207   -13598.276   -12.653033   -15445.334   -48122.464 
     380   -48122.465      246.456    239.77169       4.1076    -9677.083   -13592.221  -0.18776841    -15438.84   -48122.465 
     390   -48122.467      246.456    239.77132       4.1076   -9676.1897    -13591.11   0.80366798   -15438.262   -48122.467 
     400   -48122.468      246.456    239.77352       4.1076     -9683.52    -13596.33   -10.385745   -15443.844   -48122.468 
     410   -48122.469      246.456    239.77136       4.1076   -9676.6934   -13591.363  -0.19623735   -15438.521   -48122.469 
     420    -48122.47      246.456    239.77103       4.1076   -9675.8947   -13590.349    0.6794389   -15438.014    -48122.47 
     430   -48122.472      246.456    239.77314       4.1076   -9682.9334   -13595.338   -10.076737   -15443.386   -48122.472 
     440   -48122.473      246.456    239.77103       4.1076   -9676.2915   -13590.493  -0.16838012   -15438.214   -48122.473 
     450   -48122.474      246.456    239.77072       4.1076   -9675.5559   -13589.539   0.62602341   -15437.755   -48122.474 
     460   -48122.475      246.456    239.77287       4.1076   -9682.7244   -13594.626   -10.316052   -15443.231   -48122.475 
     470   -48122.476      246.456    239.77071       4.1076   -9675.9084   -13589.647  -0.14505823   -15437.933   -48122.476 
     480   -48122.477      246.456    239.77043       4.1076     -9675.23   -13588.767   0.59241787   -15437.516   -48122.477 
     490   -48122.478      246.456    239.77241       4.1076   -9681.8457   -13593.454   -9.5078611   -15442.576   -48122.478 
     500   -48122.479      246.456    239.77043       4.1076   -9675.5964   -13588.883    -0.186811   -15437.719   -48122.479 
     510    -48122.48      246.456    239.77114       4.1076   -9678.1532   -13590.292   -4.3599906   -15439.808    -48122.48 
     520   -48122.489      246.456    239.76912       4.1076   -9673.8261   -13585.249   0.25775578   -15436.487   -48122.489 
     530   -48122.491      246.456      239.769       4.1076   -9673.7956   -13584.836 -0.041162385   -15436.509   -48122.491 
     540   -48122.491      246.456    239.77053       4.1076    -9678.748   -13588.686   -7.3533174   -15440.204   -48122.491 
     550   -48122.492      246.456    239.76898       4.1076   -9673.9334   -13584.928  -0.38501817   -15436.488   -48122.492 
     560   -48122.493      246.456    239.76826       4.1076   -9671.7875   -13583.247    2.7563178   -15434.872   -48122.493 
     570   -48122.501      246.456    239.76908       4.1076   -9676.1738   -13584.598   -5.6308228   -15438.293   -48122.501 
     580   -48122.501      246.456    239.76787       4.1076    -9672.348   -13581.624 -0.027756653   -15435.392   -48122.501 
     590   -48122.501      246.456     239.7675       4.1076   -9671.2151   -13580.842     1.654274   -15434.457   -48122.501 
     600   -48122.502      246.456    239.76885       4.1076   -9675.6216   -13584.027   -5.0318049   -15437.806   -48122.502 
     610   -48122.502      246.456    239.76779       4.1076   -9672.2875   -13581.395  -0.17124893   -15435.296   -48122.502 
     620   -48122.502      246.456    239.76757       4.1076   -9671.5941   -13580.937   0.85707592   -15434.703   -48122.502 
     630   -48122.503      246.456    239.76871       4.1076   -9675.3651   -13583.646   -4.8839063   -15437.565   -48122.503 
     640   -48122.503      246.456    239.76769       4.1076   -9672.1504    -13581.09  -0.21559319   -15435.146   -48122.503 
     650   -48122.503      246.456    239.76749       4.1076   -9671.5506   -13580.704   0.67347214   -15434.621   -48122.503 
     660   -48122.504      246.456    239.76863       4.1076   -9675.2765   -13583.373   -5.0085371   -15437.447   -48122.504 
     670   -48122.504      246.456    239.76753       4.1076   -9671.8274   -13580.642 0.0055359131   -15434.846   -48122.504 
     680   -48122.521      246.456      239.768       4.1076   -9677.6666   -13580.214   -14.746447   -15438.039   -48122.521 
     690   -48122.522      246.456    239.76486       4.1076    -9667.709   -13573.266   0.22513083   -15430.086   -48122.522 
     700   -48122.523      246.456    239.76493       4.1076   -9667.7795   -13572.682  -0.32729399    -15430.33   -48122.523 
     710   -48122.523      246.456    239.76481       4.1076   -9667.4098   -13572.399   0.19648818   -15430.027   -48122.523 
     720   -48122.525      246.456    239.76467       4.1076   -9666.8478    -13570.71  -0.11734412   -15429.716   -48122.525 
     730   -48122.528      246.456     239.7657       4.1076   -9670.1989   -13572.389   -6.0053931   -15432.202   -48122.528 
     740   -48122.528      246.456    239.76448       4.1076   -9666.2909   -13569.708 -0.030828014   -15429.134   -48122.528 
     750   -48122.528      246.456    239.76438       4.1076   -9666.0674   -13569.543   0.31919937   -15428.978   -48122.528 
     760   -48122.528      246.456    239.76488       4.1076   -9667.7131   -13570.817   -2.1080311   -15430.214   -48122.528 
     770   -48122.528      246.456    239.76445       4.1076   -9666.3512   -13569.896 -0.025582131   -15429.132   -48122.528 
     780   -48122.529      246.456    239.76435       4.1076   -9666.0771   -13569.641   0.35273838   -15428.944   -48122.529 
     790   -48122.529      246.456    239.76295       4.1076   -9662.0877   -13566.465    6.0626012   -15425.861   -48122.529 
     800    -48122.53      246.456    239.76567       4.1076   -9670.7533   -13572.853   -6.9977478   -15432.409    -48122.53 
     810    -48122.53      246.456    239.76423       4.1076   -9666.1062   -13569.419 -0.063491421   -15428.836    -48122.53 
     820   -48122.531      246.456    239.76357       4.1076   -9663.9547    -13567.77    3.0590755   -15427.153   -48122.531 
     830   -48122.531      246.456    239.76431       4.1076   -9666.2362   -13568.934  -0.88973312   -15428.885   -48122.531 
     840   -48122.532      246.456    239.76392       4.1076   -9665.0535   -13567.193   0.19565821   -15428.164   -48122.532 
     850   -48122.532      246.456    239.76412       4.1076   -9665.7914   -13567.919  -0.76933041   -15428.686   -48122.532 
     860   -48122.532      246.456    239.76398       4.1076   -9665.3426   -13567.726 -0.0098717572   -15428.292   -48122.532 
     870   -48122.532      246.456    239.76392       4.1076   -9665.1952   -13567.582   0.19999501   -15428.204   -48122.532 
     880   -48122.533      246.456    239.76416       4.1076   -9666.0322    -13568.24    -1.026058    -15428.83   -48122.533 
     890   -48122.533      246.456    239.76396       4.1076   -9665.3867   -13567.839 -0.018605635   -15428.303   -48122.533 
     900   -48122.533      246.456    239.76388       4.1076   -9665.1734   -13567.638   0.27672747   -15428.159   -48122.533 
     910   -48122.533      246.456    239.76424       4.1076   -9666.3531    -13568.52   -1.4886172   -15429.051   -48122.533 
     920   -48122.533      246.456    239.76394       4.1076   -9665.3872   -13567.861 -0.018667923   -15428.282   -48122.533 
     930   -48122.533      246.456    239.76383       4.1076   -9665.0628   -13567.562   0.42700673   -15428.054   -48122.533 
     940   -48122.534      246.456    239.76134       4.1076   -9657.7172   -13561.501    10.704172   -15422.355   -48122.534 
     950   -48122.535      246.456    239.76511       4.1076   -9669.7453   -13570.405    -7.366094   -15431.465   -48122.535 
     960   -48122.536      246.456    239.76358       4.1076   -9664.7767   -13566.804   0.10766939   -15427.633   -48122.536 
     970   -48122.536      246.456    239.76357       4.1076   -9664.7473   -13566.789   0.15478191   -15427.608   -48122.536 
     980   -48122.536      246.456    239.76356       4.1076   -9664.7322   -13566.784   0.18019421   -15427.593   -48122.536 
     990   -48122.536      246.456    239.76356       4.1076   -9664.7199   -13566.781   0.20093654    -15427.58   -48122.536 
    1000   -48122.536      246.456    239.76357       4.1076   -9664.7358   -13566.798   0.17833821   -15427.588   -48122.536 
    1010   -48122.536      246.456    239.76359       4.1076   -9664.8041    -13566.85  0.073503962   -15427.636   -48122.536 
    1020   -48122.536      246.456    239.76354       4.1076   -9664.5353   -13566.062 -0.013582178   -15427.531   -48122.536 
    1030   -48122.536      246.456     239.7635       4.1076   -9664.4149   -13565.931   0.14944396   -15427.464   -48122.536 
    1040   -48122.536      246.456    239.76363       4.1076   -9664.8688   -13566.273  -0.52806451   -15427.805   -48122.536 
    1050   -48122.536      246.456    239.76353       4.1076   -9664.5379   -13566.073 -0.011685508   -15427.529   -48122.536 
    1060   -48122.536      246.456    239.76347       4.1076   -9664.3462   -13565.884    0.2454991   -15427.401   -48122.536 
    1070   -48122.536      246.456    239.76374       4.1076   -9665.2484   -13566.543   -1.1163505   -15428.086   -48122.536 
    1080   -48122.536      246.456    239.76352       4.1076   -9664.5218   -13566.043 -0.014375213   -15427.508   -48122.536 
    1090   -48122.537      246.456    239.76341       4.1076   -9664.2066    -13565.75   0.41651039   -15427.286   -48122.537 
    1100   -48122.537      246.456    239.76195       4.1076    -9659.693   -13562.046    6.8572249    -15423.89   -48122.537 
    1110   -48122.537      246.456    239.76315       4.1076   -9663.6109   -13564.791    0.8584055     -15426.9   -48122.537 
    1120   -48122.537      246.456     239.7631       4.1076    -9663.545   -13564.597   0.82113137   -15426.859   -48122.537 
    1130   -48122.537      246.456    239.76303       4.1076   -9663.4241   -13564.299   0.79964831   -15426.773   -48122.537 
    1140   -48122.537      246.456    239.76292       4.1076   -9663.2479   -13563.841   0.73287063   -15426.635   -48122.537 
    1150   -48122.537      246.456     239.7627       4.1076   -9662.8589       -13563   0.73003792   -15426.307   -48122.537 
    1160   -48122.537      246.456    239.76233       4.1076   -9662.1551   -13561.671    0.8883935   -15425.683   -48122.537 
    1170   -48122.537      246.456     239.7619       4.1076   -9661.3546   -13560.159    1.0246995    -15424.93   -48122.537 
    1180   -48122.537      246.456    239.76151       4.1076   -9660.6849   -13558.741    0.9193133   -15424.233   -48122.537 
    1190   -48122.537      246.456    239.76117       4.1076   -9660.1911   -13557.457   0.50117045   -15423.618   -48122.537 
    1200   -48122.542      246.456    239.77084       4.1076   -9691.6698   -13579.963   -47.529073   -15447.517   -48122.542 
    1210   -48122.543      246.456    239.76213       4.1076   -9663.6096   -13558.303   -6.0972291   -15426.429   -48122.543 
    1220   -48122.547      246.456    239.75803       4.1076   -9649.9077   -13546.865    13.272643   -15416.131   -48122.547 
    1230   -48122.548      246.456    239.76209       4.1076   -9662.8505    -13556.46   -6.1889431   -15425.902   -48122.548 
    1240    -48122.55      246.456    239.76089       4.1076   -9658.9065   -13553.745  -0.10846799   -15422.866    -48122.55 
    1250    -48122.55      246.456    239.76092       4.1076   -9658.9652   -13553.943 -0.075760733   -15422.877    -48122.55 
    1260    -48122.55      246.456    239.76098       4.1076   -9659.0866   -13554.255  -0.20068157   -15422.804    -48122.55 
    1270    -48122.55      246.456    239.76156       4.1076   -9661.0116   -13555.682   -3.0621749   -15424.291    -48122.55 
    1280    -48122.55      246.456    239.76095       4.1076   -9659.0224    -13554.25 -0.065317866   -15422.752    -48122.55 
    1290    -48122.55      246.456    239.76092       4.1076   -9658.9265   -13554.191   0.08171693    -15422.67    -48122.55 
    1300    -48122.55      246.456    239.76088       4.1076   -9658.8172   -13554.118   0.24928429   -15422.583    -48122.55 
    1310    -48122.55      246.456    239.76086       4.1076   -9658.7532   -13554.081   0.35030932   -15422.528    -48122.55 
    1320    -48122.55      246.456    239.76083       4.1076   -9658.6483   -13554.019   0.51390761    -15422.44    -48122.55 
    1330   -48122.551      246.456    239.76076       4.1076   -9658.4222   -13553.874   0.86107468   -15422.254   -48122.551 
    1340   -48122.551      246.456    239.76014       4.1076   -9656.3991   -13552.427    3.9007633   -15420.671   -48122.551 
    1350   -48122.551      246.456    239.76064       4.1076   -9657.9095   -13552.931     1.072643    -15421.87   -48122.551 
    1360   -48122.551      246.456    239.76053       4.1076   -9657.5821   -13552.707    1.5551175   -15421.595   -48122.551 
    1370   -48122.551      246.456    239.76063       4.1076   -9657.9096   -13553.024    1.0997022   -15421.805   -48122.551 
    1380   -48122.551      246.456    239.76102       4.1076   -9659.1481   -13553.935  -0.76239209   -15422.747   -48122.551 
    1390   -48122.551      246.456    239.76086       4.1076   -9658.6391   -13553.525 -0.025172273   -15422.367   -48122.551 
    1400   -48122.551      246.456    239.76076       4.1076   -9658.3115   -13553.301   0.46918726   -15422.102   -48122.551 
    1410   -48122.551      246.456    239.76082       4.1076    -9658.526    -13553.38  0.086124399   -15422.284   -48122.551 
    1420   -48122.552      246.456    239.76077       4.1076   -9658.2318    -13552.78  0.011648348   -15421.927   -48122.552 
    1430   -48122.552      246.456    239.76068       4.1076   -9657.8745   -13552.048  0.011676564   -15421.587   -48122.552 
    1440   -48122.552      246.456     239.7607       4.1076   -9657.9141   -13551.899  -0.27429207   -15421.569   -48122.552 
    1450   -48122.552      246.456    239.76063       4.1076   -9657.6618   -13551.665 0.0069766384   -15421.328   -48122.552 
    1460   -48122.553      246.456    239.76052       4.1076   -9657.1566   -13550.644 -0.0028322708   -15420.823   -48122.553 
    1470   -48122.553      246.456    239.76049       4.1076   -9656.8723   -13549.757  -0.54493875   -15420.315   -48122.553 
    1480   -48122.553      246.456    239.75972       4.1076   -9654.0661   -13546.444    2.0775178   -15417.831   -48122.553 
    1490   -48122.553      246.456    239.75971       4.1076    -9653.814   -13545.424    1.4237749   -15417.442   -48122.553 
    1500   -48122.556      246.456    239.75985       4.1076    -9653.864   -13543.366  -0.61572814   -15417.611   -48122.556 
    1510   -48122.559      246.456    239.76506       4.1076   -9670.4771    -13554.97    -26.54542   -15429.916   -48122.559 
    1520    -48122.56      246.456    239.76056       4.1076   -9655.8817   -13543.076   -5.9726636   -15418.596    -48122.56 
    1530    -48122.57      246.456    239.75876       4.1076   -9649.6797   -13535.437  -0.60963462   -15412.993    -48122.57 
    1540   -48122.587      246.456    239.75736       4.1076   -9646.0138   -13528.979  -0.40746766   -15408.655   -48122.587 
    1550     -48122.6      246.456    239.75693       4.1076   -9645.0185   -13526.136    -1.171788   -15407.748     -48122.6 
    1560   -48122.675      246.456    239.73082       4.1076   -9563.4428   -13448.392    103.95976   -15345.896   -48122.675 
    1570   -48122.821      246.456    239.75084       4.1076   -9634.3725   -13496.891    -7.648449   -15398.578   -48122.821 
    1580   -48122.849      246.456    239.74734       4.1076   -9625.5719   -13486.766    3.5227322   -15393.472   -48122.849 
    1590   -48122.886      246.456    239.75046       4.1076   -9635.9291   -13494.694   -12.647027   -15400.446   -48122.886 
    1600   -48122.943      246.456    239.73412       4.1076   -9584.7403    -13444.39    54.235398   -15364.066   -48122.943 
    1610   -48122.984      246.456    239.74464       4.1076   -9618.1914   -13469.491    3.6005624   -15388.684   -48122.984 
    1620   -48123.017      246.456    239.74896       4.1076   -9632.1222    -13479.08    -17.77847   -15399.508   -48123.017 
    1630   -48123.027      246.456    239.74523       4.1076   -9619.8751    -13468.63  -0.28011846   -15390.715   -48123.027 
    1640   -48123.034      246.456    239.74468       4.1076   -9617.7514   -13467.051    2.8485463   -15389.052   -48123.034 
    1650   -48123.042      246.456    239.74985       4.1076    -9634.089   -13478.367   -22.044956   -15401.855   -48123.042 
    1660   -48123.047      246.456    239.74542       4.1076   -9619.7937   -13466.803   -1.2022678   -15391.376   -48123.047 
    1670   -48123.051      246.456    239.74494       4.1076   -9618.0574   -13465.572    1.4155873   -15390.016   -48123.051 
    1680   -48123.056      246.456    239.74894       4.1076   -9630.8053   -13474.492   -17.930826   -15399.993   -48123.056 
    1690    -48123.06      246.456    239.74536       4.1076   -9619.3114   -13465.254   -1.1237766   -15391.557    -48123.06 
    1700   -48123.063      246.456    239.74494       4.1076   -9617.8374    -13464.28     1.145047   -15390.377   -48123.063 
    1710   -48123.066      246.456    239.74832       4.1076   -9628.6923   -13471.967   -15.273064   -15398.837   -48123.066 
    1720   -48123.069      246.456    239.74527       4.1076   -9618.9731   -13464.204   -1.0329831   -15391.682   -48123.069 
    1730   -48123.071      246.456    239.74489       4.1076   -9617.6623   -13463.383    1.0087473   -15390.613   -48123.071 
    1740   -48123.074      246.456    239.74786       4.1076   -9627.2336   -13470.216      -13.439   -15398.046   -48123.074 
    1750   -48123.076      246.456    239.74518       4.1076   -9618.6955   -13463.424  -0.91619018   -15391.746   -48123.076 
    1760   -48123.078      246.456    239.74482       4.1076   -9617.4859   -13462.687   0.97807874   -15390.748   -48123.078 
    1770   -48123.081      246.456    239.74751       4.1076   -9626.1689   -13468.918   -12.113839   -15397.475   -48123.081 
    1780   -48123.082      246.456    239.74509       4.1076   -9618.4867    -13462.82  -0.84046814   -15391.799   -48123.082 
    1790   -48123.084      246.456    239.74476       4.1076    -9617.381   -13462.164   0.89910649   -15390.878   -48123.084 
    1800   -48123.086      246.456    239.74523       4.1076   -9618.9358    -13463.17   -1.5037422   -15392.133   -48123.086 
    1810   -48123.087      246.456    239.74501       4.1076   -9618.2853   -13462.337  -0.71795116     -15391.8   -48123.087 
    1820   -48123.088      246.456     239.7447       4.1076    -9617.266   -13461.735    0.8868867    -15390.95   -48123.088 
    1830    -48123.09      246.456    239.74696       4.1076   -9624.5929   -13467.027   -10.143584   -15396.608    -48123.09 
    1840   -48123.091      246.456    239.74493       4.1076   -9618.1307   -13461.919  -0.65035161   -15391.822   -48123.091 
    1850   -48123.092      246.456    239.74468       4.1076   -9617.3209   -13461.478   0.64391433   -15391.129   -48123.092 
    1860   -48123.094      246.456     239.7429       4.1076   -9611.6212   -13457.156    9.1142876   -15386.822   -48123.094 
    1870   -48123.097      246.456    239.74456       4.1076   -9617.2553   -13460.233  0.094716502   -15391.628   -48123.097 
    1880   -48123.118      246.456    239.74437       4.1076   -9617.7105   -13458.439   -1.9508697   -15392.742   -48123.118 
    1890   -48123.119      246.456    239.74532       4.1076   -9620.7856   -13460.853   -6.4329356   -15395.071   -48123.119 
    1900   -48123.119      246.456    239.74493       4.1076   -9619.6445   -13460.197   -4.5097361   -15394.227   -48123.119 
    1910   -48123.119      246.456    239.74449       4.1076   -9618.3361   -13459.362   -2.3660428    -15393.28   -48123.119 
    1920   -48123.121      246.456    239.74787       4.1076   -9629.4824   -13467.311   -19.073228   -15402.063   -48123.121 
    1930   -48123.121      246.456    239.74391       4.1076   -9616.6984   -13458.018 -0.046674375   -15392.031   -48123.121 
    1940   -48123.122      246.456     239.7438       4.1076   -9616.3783   -13457.705   0.39848565   -15391.829   -48123.122 
    1950   -48123.122      246.456    239.74442       4.1076   -9618.4404   -13459.267   -2.6616593   -15393.393   -48123.122 
    1960   -48123.122      246.456    239.74389       4.1076   -9616.7418   -13458.137 -0.053086052   -15392.036   -48123.122 
    1970   -48123.123      246.456    239.74377       4.1076   -9616.4063   -13457.806    0.4182978   -15391.832   -48123.123 
    1980   -48123.123      246.456    239.74464       4.1076   -9619.2726   -13459.955   -3.8455153   -15394.018   -48123.123 
    1990   -48123.123      246.456    239.74386       4.1076   -9616.7852    -13458.24 -0.054565422   -15392.061   -48123.123 
    2000   -48123.124      246.456    239.74373       4.1076   -9616.4463   -13457.899    0.4135663   -15391.853   -48123.124 
    2010   -48123.124      246.456    239.74504       4.1076   -9620.6955   -13461.079   -5.9185988   -15395.089   -48123.124 
    2020   -48123.125      246.456    239.74405       4.1076   -9618.1431   -13458.893   -2.2172056   -15393.319   -48123.125 
    2030   -48123.128      246.456    239.74434       4.1076   -9619.0705   -13460.162    -3.299282    -15393.75   -48123.128 
    2040   -48123.128      246.456    239.74362       4.1076   -9616.8305   -13458.391 -0.023846363   -15392.077   -48123.128 
    2050   -48123.135      246.456    239.73222       4.1076   -9582.0641   -13430.892    50.114242   -15365.415   -48123.135 
    2060   -48123.139      246.456    239.74527       4.1076   -9625.4459   -13462.523   -15.818719   -15397.996   -48123.139 
    2070   -48123.139      246.456    239.74353       4.1076   -9619.8552   -13458.243   -7.5407774   -15393.782   -48123.139 
    2080   -48123.139      246.456    239.74198       4.1076   -9614.9003   -13454.771   0.12289359   -15390.052   -48123.139 
    2090    -48123.14      246.456    239.74198       4.1076   -9614.8556   -13454.583 -0.090709534   -15389.893    -48123.14 
    2100    -48123.14      246.456    239.74201       4.1076    -9614.728   -13454.077  -0.14235912   -15389.964    -48123.14 
    2110   -48123.141      246.456    239.74193       4.1076   -9614.4731   -13454.167   0.45815977    -15389.71   -48123.141 
    2120   -48123.141      246.456    239.74198       4.1076   -9614.6451   -13454.128  0.075340653   -15389.882   -48123.141 
    2130   -48123.142      246.456     239.7422       4.1076   -9615.0542   -13454.288  -0.58291706   -15390.291   -48123.142 
    2140   -48123.142      246.456    239.74343       4.1076   -9618.8986    -13456.87   -6.3337449   -15393.492   -48123.142 
    2150   -48123.143      246.456    239.74213       4.1076    -9614.714   -13453.882 -0.063906102   -15390.196   -48123.143 
    2160   -48123.143      246.456    239.74234       4.1076   -9615.3945   -13454.225    -1.313788   -15390.645   -48123.143 
    2170   -48123.143      246.456    239.74298       4.1076   -9617.3564   -13455.677   -4.0615155    -15392.33   -48123.143 
    2180   -48123.143      246.456    239.74163       4.1076   -9612.9791    -13452.33    2.5077901   -15389.115   -48123.143 
    2190   -48123.143      246.456    239.74225       4.1076   -9614.8998   -13453.588  -0.42621005   -15390.685   -48123.143 
    2200   -48123.143      246.456     239.7422       4.1076    -9614.737   -13453.419  -0.27691115   -15390.516   -48123.143 
    2210   -48123.144      246.456    239.74185       4.1076   -9613.6159   -13452.639    1.3733557   -15389.581   -48123.144 
    2220   -48123.144      246.456    239.74256       4.1076   -9615.8969   -13454.279   -2.1035502   -15391.308   -48123.144 
    2230   -48123.144      246.456    239.74212       4.1076   -9614.4938   -13453.181 -0.054903259   -15390.245   -48123.144 
    2240   -48123.144      246.456    239.74198       4.1076    -9614.056   -13452.882   0.60411458    -15389.89   -48123.144 
    2250   -48123.144      246.456    239.74236       4.1076   -9615.2763   -13453.768   -1.2380427   -15390.823   -48123.144 
    2260   -48123.144      246.456    239.74211       4.1076   -9614.4667    -13453.12 -0.057186795   -15390.223   -48123.144 
    2270   -48123.144      246.456    239.74202       4.1076   -9614.1887   -13452.942   0.37157323   -15389.996   -48123.144 
    2280   -48123.144      246.456    239.74206       4.1076   -9614.3416   -13452.869  0.034994462   -15390.191   -48123.144 
    2290   -48123.148      246.456    239.74181       4.1076   -9613.5301   -13450.386 0.0022035206   -15390.207   -48123.148 
    2300   -48123.149      246.456    239.74181       4.1076   -9613.5342   -13450.428 0.0016172062   -15390.176   -48123.149 
    2303   -48123.149      246.456    239.74176       4.1076   -9613.3904   -13450.281   0.18460366   -15390.075   -48123.149 
Loop time of 24.8423 on 8 procs for 2303 steps with 14364 atoms

100.0% CPU use with 8 MPI tasks x no OpenMP threads

Minimization stats:
  Stopping criterion = energy tolerance
  Energy initial, next-to-last, final = 
      -48058.018133486  -48123.1486617105  -48123.1486617105
  Force two-norm initial, final = 4641.7542 0.032146482
  Force max component initial, final = 4641.7542 0.028747288
  Final line search alpha, max atom move = 0.038358127 0.0011026921
  Iterations, force evaluations = 2303 4565

MPI task timing breakdown:
Section |  min time  |  avg time  |  max time  |%varavg| %total
---------------------------------------------------------------
Pair    | 22.857     | 22.993     | 23.113     |   1.5 | 92.56
Neigh   | 0.02959    | 0.029862   | 0.03012    |   0.1 |  0.12
Comm    | 0.40496    | 0.51322    | 0.65909    |  10.8 |  2.07
Output  | 0.022371   | 0.022798   | 0.025539   |   0.7 |  0.09
Modify  | 0          | 0          | 0          |   0.0 |  0.00
Other   |            | 1.283      |            |       |  5.17

Nlocal:         1795.5 ave        1805 max        1786 min
Histogram: 1 0 1 2 1 0 0 1 1 1
Nghost:        12468.8 ave       12505 max       12437 min
Histogram: 1 0 1 3 0 1 0 0 1 1
Neighs:         124940 ave      125934 max      123833 min
Histogram: 1 0 1 1 1 1 1 0 0 2
FullNghs:       249343 ave      250564 max      247201 min
Histogram: 1 0 0 1 1 0 1 0 2 2

Total # of neighbors = 1994744
Ave neighs/atom = 138.87107
Neighbor list builds = 7
Dangerous builds = 0
GB energy is 1106.99044147802 mJ/m^2
WARNING: Using 'neigh_modify every 1 delay 0 check yes' setting during minimization (../min.cpp:187)
Setting up cg style minimization ...
  Unit style    : metal
  Current step  : 0
WARNING: Energy due to 3 extra global DOFs will be included in minimizer energies
Per MPI rank memory allocation (min/avg/max) = 8.503 | 8.504 | 8.504 Mbytes
Step PotEng Lx Ly Lz Press Pxx Pyy Pzz c_eatoms 
       0   -48123.149      246.456    239.74176       4.1076   -9613.3904   -13450.281   0.18460366   -15390.075   -48123.149 
      10   -48123.149      246.456    239.74177       4.1076   -9613.4372   -13450.309  0.099400188   -15390.102   -48123.149 
      20   -48123.149      246.456    239.74177       4.1076   -9613.4386   -13450.304  0.092619217   -15390.104   -48123.149 
      30   -48123.149      246.456    239.74177       4.1076    -9613.436   -13450.295  0.090549619   -15390.104   -48123.149 
      40   -48123.149      246.456    239.74177       4.1076   -9613.4295    -13450.28  0.091909851     -15390.1   -48123.149 
      50   -48123.149      246.456    239.74176       4.1076    -9613.423   -13450.262  0.089330318   -15390.096   -48123.149 
      60   -48123.149      246.456    239.74177       4.1076   -9613.4496   -13450.259  0.024406792   -15390.114   -48123.149 
      70   -48123.149      246.456    239.74182       4.1076   -9613.6302   -13450.451  -0.23386151   -15390.206   -48123.149 
      80   -48123.149      246.456    239.74176       4.1076   -9613.4499   -13450.271 -0.00017346659   -15390.078   -48123.149 
      90   -48123.149      246.456    239.74177       4.1076   -9613.4819   -13450.385 -0.029528897   -15390.031   -48123.149 
     100    -48123.15      246.456     239.7416       4.1076   -9613.1936   -13449.856 -0.019536032   -15389.706    -48123.15 
     110    -48123.15      246.456    239.74188       4.1076   -9614.2562   -13450.654   -1.7539584   -15390.361    -48123.15 
     120    -48123.15      246.456    239.74133       4.1076   -9612.7729   -13449.108  0.038498378   -15389.249    -48123.15 
     130    -48123.15      246.456    239.74138       4.1076   -9612.8224    -13449.18  0.013956452   -15389.301    -48123.15 
     140   -48123.151      246.456    239.74138       4.1076   -9612.8257   -13449.174 0.0025912416   -15389.305   -48123.151 
     150   -48123.151      246.456    239.74138       4.1076    -9612.823   -13449.129 -0.022156579   -15389.318   -48123.151 
     160   -48123.151      246.456    239.73993       4.1076   -9608.1499   -13445.288      6.64318   -15385.805   -48123.151 
     170   -48123.151      246.456    239.74147       4.1076   -9613.1186   -13448.655   -1.1483653   -15389.552   -48123.151 
     180   -48123.151      246.456    239.74105       4.1076   -9611.7805   -13447.574   0.77299479    -15388.54   -48123.151 
     190   -48123.151      246.456    239.74132       4.1076   -9612.6267   -13448.226  -0.44403965    -15389.21   -48123.151 
     200   -48123.151      246.456    239.74124       4.1076   -9612.3514   -13448.061 0.0017723503   -15388.995   -48123.151 
     210   -48123.152      246.456    239.74123       4.1076   -9612.4421   -13448.196 -0.0090020279   -15389.121   -48123.152 
     220   -48123.152      246.456    239.74123       4.1076   -9612.4488   -13448.203 -0.015678899   -15389.128   -48123.152 
     229   -48123.152      246.456    239.74123       4.1076   -9612.4444   -13448.189 -0.053250965   -15389.091   -48123.152 
Loop time of 2.50448 on 8 procs for 229 steps with 14364 atoms

100.0% CPU use with 8 MPI tasks x no OpenMP threads

Minimization stats:
  Stopping criterion = energy tolerance
  Energy initial, next-to-last, final = 
     -48123.1486617105  -48123.1517115461  -48123.1517115462
  Force two-norm initial, final = 0.031448081 0.0099826691
  Force max component initial, final = 0.027964121 0.0080665598
  Final line search alpha, max atom move = 0.077570294 0.00062572541
  Iterations, force evaluations = 229 457

MPI task timing breakdown:
Section |  min time  |  avg time  |  max time  |%varavg| %total
---------------------------------------------------------------
Pair    | 2.2782     | 2.3032     | 2.3157     |   0.8 | 91.96
Neigh   | 0          | 0          | 0          |   0.0 |  0.00
Comm    | 0.040697   | 0.052592   | 0.076807   |   4.9 |  2.10
Output  | 0.0021318  | 0.0021753  | 0.0024495  |   0.2 |  0.09
Modify  | 0          | 0          | 0          |   0.0 |  0.00
Other   |            | 0.1465     |            |       |  5.85

Nlocal:         1795.5 ave        1802 max        1787 min
Histogram: 1 0 1 1 0 1 0 1 2 1
Nghost:        12471.5 ave       12513 max       12448 min
Histogram: 3 1 1 0 1 0 0 0 0 2
Neighs:         124956 ave      125662 max      124067 min
Histogram: 1 1 0 0 0 3 0 1 1 1
FullNghs:       249911 ave      251125 max      248069 min
Histogram: 1 0 1 0 0 2 0 1 2 1

Total # of neighbors = 1999288
Ave neighs/atom = 139.18741
Neighbor list builds = 0
Dangerous builds = 0
Changing box ...
535 atoms in group frozen
13829 atoms in group tstat
Setting up Verlet run ...
  Unit style    : metal
  Current step  : 0
  Time step     : 0.001
Per MPI rank memory allocation (min/avg/max) = 7.309 | 7.31 | 7.311 Mbytes
Step Time Atoms Temp PotEng KinEng TotEng Density 
       0            0    14364         1700   -48014.424    3156.1579   -44858.266    2.6548219 
    5000            5    14364    883.71686   -46430.696    1640.6764    -44790.02    2.5553418 
   10000           10    14364    883.87085   -46361.962    1640.9623       -44721    2.5350727 
   15000           15    14364    879.65457   -46508.158    1633.1345   -44875.024    2.6272715 
   20000           20    14364    884.10496   -46485.509     1641.397   -44844.112    2.5792105 
   25000           25    14364    877.88868   -46309.955     1629.856   -44680.099    2.5243214 
   30000           30    14364    877.81969   -46518.018     1629.728    -44888.29     2.604976 
   35000           35    14364     878.8124   -46531.101     1631.571    -44899.53    2.5978372 
   40000           40    14364    885.95518   -46296.804     1644.832   -44651.972    2.5255744 
   45000           45    14364      878.713   -46480.248    1631.3865   -44848.861    2.5830703 
   50000           50    14364    880.30195   -46501.772    1634.3364   -44867.436     2.614879 
   55000           55    14364    873.13078   -46313.706    1621.0227   -44692.684     2.526137 
   60000           60    14364    881.51452    -46440.98    1636.5877   -44804.392     2.561843 
   65000           65    14364    889.23721   -46529.711    1650.9253   -44878.785    2.6208375 
   70000           70    14364    877.37612   -46385.468    1628.9044   -44756.563    2.5360597 
   75000           75    14364    883.50623   -46370.736    1640.2854   -44730.451    2.5452123 
   80000           80    14364    879.81161   -46503.584    1633.4261   -44870.158    2.6221452 
   85000           85    14364    884.19099   -46445.303    1641.5567   -44803.746    2.5613868 
   90000           90    14364     876.5434   -46340.121    1627.3584   -44712.763    2.5323235 
   95000           95    14364      874.418   -46511.188    1623.4125   -44887.776    2.6093981 
  100000          100    14364    884.15666   -46489.407    1641.4929   -44847.914    2.5810143 
  105000          105    14364    884.44273   -46326.241    1642.0241   -44684.217    2.5279154 
  110000          110    14364    882.45145   -46502.055    1638.3271   -44863.728    2.6000937 
  115000          115    14364    885.98046   -46502.452     1644.879   -44857.573    2.5981666 
  120000          120    14364    877.65582   -46320.645    1629.4237   -44691.222    2.5335583 
  125000          125    14364    879.24524   -46474.251    1632.3746   -44841.876    2.5793373 
  130000          130    14364      878.651   -46520.834    1631.2713   -44889.563    2.6143985 
  135000          135    14364    878.51088   -46363.735    1631.0112   -44732.724    2.5422972 
  140000          140    14364    880.40491   -46453.678    1634.5276   -44819.151    2.5639466 
  145000          145    14364    879.66882   -46499.672     1633.161   -44866.511    2.6134009 
  150000          150    14364    880.64956   -46399.189    1634.9818   -44764.208    2.5507483 
  155000          155    14364    888.61265   -46404.294    1649.7658   -44754.528    2.5515348 
  160000          160    14364    881.21384   -46516.821    1636.0294   -44880.792    2.6105587 
  165000          165    14364    874.25627   -46444.132    1623.1122    -44821.02    2.5654547 
  170000          170    14364    874.49635   -46373.268     1623.558    -44749.71    2.5423953 
  175000          175    14364      881.647   -46522.695    1636.8336   -44885.861    2.6080488 
  180000          180    14364    871.47862   -46482.877    1617.9554   -44864.921    2.5802996 
  185000          185    14364    874.20551   -46367.414     1623.018   -44744.396    2.5402434 
  190000          190    14364    879.08452   -46520.961    1632.0762   -44888.884    2.5914051 
  195000          195    14364     884.4519   -46502.422    1642.0411   -44860.381    2.5986688 
  200000          200    14364    866.18737   -46366.395    1608.1318   -44758.263    2.5386514 
  205000          205    14364    878.02064    -46482.48     1630.101   -44852.379    2.5806792 
  210000          210    14364    880.26066   -46525.899    1634.2598   -44891.639    2.6045348 
  215000          215    14364    874.50279   -46375.512    1623.5699   -44751.942    2.5437946 
  220000          220    14364    885.66311    -46449.94    1644.2898    -44805.65    2.5667549 
  225000          225    14364    886.36214   -46498.606    1645.5876   -44853.018    2.6040384 
  230000          230    14364    878.45792   -46405.837    1630.9129   -44774.924    2.5544185 
  235000          235    14364    893.23304   -46397.137    1658.3438   -44738.793    2.5563315 
  240000          240    14364    891.17328   -46501.529    1654.5197   -44847.009    2.6049113 
  245000          245    14364    885.51237   -46455.411    1644.0099   -44811.401    2.5674048 
  250000          250    14364    877.71492    -46373.78    1629.5335   -44744.246    2.5466475 
  255000          255    14364    885.94481   -46480.558    1644.8128   -44835.745    2.6009647 
  260000          260    14364    875.42017   -46472.693    1625.2731    -44847.42    2.5796508 
  265000          265    14364    873.86413   -46392.499    1622.3842   -44770.115    2.5458768 
  270000          270    14364    894.17771   -46508.204    1660.0977   -44848.106    2.5881372 
  275000          275    14364    884.67718   -46505.986    1642.4593   -44863.527    2.5919827 
  280000          280    14364    883.70471   -46387.981    1640.6539   -44747.327    2.5431911 
  285000          285    14364    876.51446   -46489.334    1627.3047   -44862.029    2.5839067 
  290000          290    14364    870.75594   -46515.619    1616.6137   -44899.005    2.5949278 
  295000          295    14364     876.9399   -46384.522    1628.0946   -44756.428    2.5495731 
  300000          300    14364    879.77119   -46479.099     1633.351   -44845.748    2.5752191 
  305000          305    14364    884.20058   -46510.658    1641.5745   -44869.084    2.6026678 
  310000          310    14364    872.89004   -46423.692    1620.5758   -44803.116    2.5535237 
  315000          315    14364    883.48648   -46446.331    1640.2487   -44806.083    2.5619895 
  320000          320    14364    872.53764   -46504.747    1619.9215   -44884.825    2.6044537 
  325000          325    14364    879.05627   -46433.106    1632.0237   -44801.082    2.5658294 
  330000          330    14364    893.50949   -46417.402    1658.8571   -44758.545    2.5519045 
  335000          335    14364    883.51766   -46496.519    1640.3066   -44856.212    2.5944053 
  340000          340    14364     884.9588   -46478.002    1642.9822    -44835.02    2.5747872 
  345000          345    14364    882.62686   -46411.357    1638.6528   -44772.704    2.5501563 
  350000          350    14364    882.00857   -46493.806    1637.5049   -44856.301    2.5923887 
  355000          355    14364    885.28534   -46481.405    1643.5884   -44837.816    2.5790361 
  360000          360    14364    879.49334   -46409.205    1632.8352    -44776.37    2.5483092 
  365000          365    14364    879.04504   -46498.942    1632.0029   -44866.939    2.5869905 
  370000          370    14364    877.87549   -46497.975    1629.8316   -44868.144     2.590328 
  375000          375    14364    886.41147   -46406.506    1645.6791   -44760.827    2.5507756 
  380000          380    14364    880.88563   -46465.546    1635.4201   -44830.126    2.5784537 
  385000          385    14364    878.49741   -46511.066    1630.9862    -44880.08    2.5953097 
  390000          390    14364    887.41722   -46427.088    1647.5464   -44779.542    2.5562185 
  395000          395    14364    878.89883   -46437.113    1631.7315   -44805.381    2.5674228 
  400000          400    14364     876.0637   -46513.454    1626.4679   -44886.986    2.5996512 
  405000          405    14364    879.56037   -46435.241    1632.9597   -44802.281    2.5643278 
  410000          410    14364    879.82776   -46444.943    1633.4561   -44811.486    2.5597228 
  415000          415    14364    886.30768   -46508.184    1645.4864   -44862.698     2.599462 
  420000          420    14364    875.62321   -46461.329    1625.6501   -44835.679    2.5668495 
  425000          425    14364    871.20728    -46419.94    1617.4516   -44802.489    2.5587386 
  430000          430    14364    886.01018   -46515.349    1644.9341   -44870.415    2.5956655 
  435000          435    14364     872.1972   -46484.793    1619.2894   -44865.503    2.5748321 
  440000          440    14364    880.35504    -46409.09     1634.435   -44774.655    2.5554394 
  445000          445    14364    885.53669   -46499.893    1644.0551   -44855.838    2.5920255 
  450000          450    14364    884.08132   -46503.585    1641.3531   -44862.232    2.5813119 
  455000          455    14364    885.27767   -46418.173    1643.5742   -44774.599    2.5556371 
  460000          460    14364    884.27914   -46490.846    1641.7203   -44849.126    2.5830957 
  465000          465    14364    874.35995    -46491.15    1623.3047   -44867.845    2.5895822 
  470000          470    14364    877.86571     -46423.1    1629.8134   -44793.286    2.5582965 
  475000          475    14364    877.29411   -46480.277    1628.7522   -44851.525    2.5715544 
  480000          480    14364    873.96717   -46490.712    1622.5755   -44868.137    2.5911366 
  485000          485    14364    883.97403   -46442.353    1641.1539   -44801.199    2.5598198 
  490000          490    14364    880.05238   -46480.811    1633.8731   -44846.938    2.5676595 
  495000          495    14364    879.83308   -46489.883    1633.4659   -44856.417    2.5935624 
  500000          500    14364    878.58389   -46445.194    1631.1467   -44814.048    2.5666816 
  505000          505    14364    881.01704   -46442.578     1635.664   -44806.914    2.5636312 
  510000          510    14364    890.45006   -46485.636     1653.177   -44832.459    2.5927457 
  515000          515    14364    884.56842   -46472.543    1642.2574   -44830.285     2.571164 
  520000          520    14364    884.39737   -46440.832    1641.9398   -44798.892    2.5601724 
  525000          525    14364     882.0011   -46498.509     1637.491   -44861.018    2.5892849 
  530000          530    14364    886.07082   -46498.199    1645.0467   -44853.153    2.5808383 
  535000          535    14364     881.0131   -46414.302    1635.6567   -44778.645     2.561289 
  540000          540    14364    891.25936   -46484.688    1654.6796   -44830.008    2.5863874 
  545000          545    14364    866.66323   -46502.968    1609.0153   -44893.953    2.5834582 
  550000          550    14364    876.50414   -46427.015    1627.2856   -44799.729    2.5593349 
  555000          555    14364    874.97421    -46488.96    1624.4452   -44864.515    2.5829182 
  560000          560    14364    880.48655   -46497.935    1634.6792   -44863.256    2.5882759 
  565000          565    14364    882.77266    -46440.46    1638.9235   -44801.537    2.5645867 
  570000          570    14364    875.81708   -46465.491      1626.01   -44839.481    2.5787823 
  575000          575    14364    883.96868   -46496.811     1641.144   -44855.667    2.5883675 
  580000          580    14364    874.15563   -46424.373    1622.9254   -44801.448     2.567371 
  585000          585    14364    870.62148    -46455.11     1616.364   -44838.746    2.5709511 
  590000          590    14364    881.46577   -46501.396    1636.4971   -44864.899    2.5912229 
  595000          595    14364    887.90659   -46475.968    1648.4549   -44827.513    2.5641643 
  600000          600    14364    874.60189   -46455.652    1623.7539   -44831.898    2.5670607 
  605000          605    14364    879.63925   -46519.159    1633.1061   -44886.052    2.5888123 
  610000          610    14364    884.44128   -46469.337    1642.0214   -44827.315    2.5734018 
  615000          615    14364    880.88182   -46447.624     1635.413   -44812.211    2.5654466 
  620000          620    14364    881.68229   -46499.106    1636.8991   -44862.207    2.5837978 
  625000          625    14364    874.19479   -46473.933    1622.9981   -44850.935    2.5802764 
  630000          630    14364    883.51638   -46452.469    1640.3042   -44812.165    2.5659292 
  635000          635    14364    875.65468   -46522.748    1625.7085    -44897.04    2.5814886 
  640000          640    14364    890.31851   -46488.626    1652.9328   -44835.693    2.5834925 
  645000          645    14364    882.94294   -46471.174    1639.2396   -44831.935    2.5684897 
  650000          650    14364    887.71506    -46501.14    1648.0993   -44853.041     2.573955 
  655000          655    14364    886.41215   -46507.722    1645.6804   -44862.041    2.5859036 
  660000          660    14364    879.00124   -46456.845    1631.9216   -44824.924    2.5640351 
  665000          665    14364    876.77432   -46485.003    1627.7872   -44857.216    2.5784079 
  670000          670    14364    897.32054   -46506.051    1665.9325   -44840.118    2.5865752 
  675000          675    14364    880.30881   -46470.469    1634.3492    -44836.12    2.5651459 
  680000          680    14364    886.94402   -46492.284    1646.6679   -44845.616    2.5729898 
  685000          685    14364    878.96944   -46494.413    1631.8625    -44862.55    2.5859621 
  690000          690    14364    884.12137   -46469.459    1641.4274   -44828.032    2.5671611 
  695000          695    14364    885.61727   -46488.067    1644.2047   -44843.862    2.5706752 
  700000          700    14364    882.39058   -46505.198    1638.2141   -44866.984    2.5836482 
  705000          705    14364     874.9418     -46476.3     1624.385   -44851.915    2.5737375 
  710000          710    14364    882.00205   -46458.357    1637.4928   -44820.865    2.5684706 
  715000          715    14364     873.7682   -46500.872    1622.2061   -44878.666    2.5803261 
  720000          720    14364    892.31688    -46466.49    1656.6429   -44809.847    2.5802078 
  725000          725    14364    881.56954   -46463.805    1636.6898   -44827.116    2.5691667 
  730000          730    14364    871.72557   -46491.255    1618.4138   -44872.841    2.5845614 
  735000          735    14364      882.922   -46498.768    1639.2007   -44859.567    2.5771708 
  740000          740    14364    887.83216   -46473.869    1648.3167   -44825.553    2.5686294 
  745000          745    14364    888.91817   -46498.573     1650.333    -44848.24    2.5780338 
  750000          750    14364    882.28483   -46501.621    1638.0178   -44863.603    2.5771806 
  755000          755    14364    878.73881   -46465.919    1631.4344   -44834.485    2.5682294 
  760000          760    14364    888.30146    -46494.09     1649.188   -44844.901    2.5736287 
  765000          765    14364    878.48942   -46509.656    1630.9714   -44878.684    2.5774625 
  770000          770    14364     880.9979   -46468.276    1635.6285   -44832.647    2.5626309 
  775000          775    14364    874.83128    -46501.28    1624.1798     -44877.1    2.5764027 
  780000          780    14364    888.49026   -46513.856    1649.5385   -44864.317    2.5858699 
  785000          785    14364    889.40535   -46496.022    1651.2375   -44844.784     2.571725 
  790000          790    14364    876.79118   -46453.823    1627.8185   -44826.005    2.5682658 
  795000          795    14364    879.27562    -46498.09     1632.431   -44865.659    2.5859596 
  800000          800    14364    878.25516   -46478.747    1630.5364   -44848.211    2.5655571 
  805000          805    14364    879.49236    -46476.65    1632.8334   -44843.817    2.5657076 
  810000          810    14364    881.26502   -46485.847    1636.1244   -44849.723    2.5821951 
  815000          815    14364    883.39147   -46485.542    1640.0723    -44845.47    2.5725195 
  820000          820    14364    881.58993   -46461.685    1636.7277   -44824.958    2.5662195 
  825000          825    14364     885.3727   -46490.649    1643.7506   -44846.898    2.5780676 
  830000          830    14364    883.92253   -46496.952    1641.0583   -44855.893    2.5765983 
  835000          835    14364    875.87058   -46462.034    1626.1093   -44835.925    2.5606549 
  840000          840    14364    887.92175   -46487.989    1648.4831   -44839.506    2.5778616 
  845000          845    14364    883.11636   -46479.754    1639.5616   -44840.192    2.5772883 
  850000          850    14364    876.09751   -46476.193    1626.5306   -44849.662    2.5689312 
  855000          855    14364    878.92526    -46490.54    1631.7805   -44858.759     2.571094 
  860000          860    14364    888.44513   -46514.382    1649.4548   -44864.927    2.5792956 
  865000          865    14364    872.99295   -46488.131    1620.7668   -44867.365    2.5637168 
  870000          870    14364    876.66552     -46494.6    1627.5852   -44867.015    2.5743803 
  875000          875    14364    877.98389   -46489.006    1630.0328   -44858.973    2.5779471 
  880000          880    14364    873.41466     -46470.8    1621.5497    -44849.25    2.5600981 
  885000          885    14364    886.40745   -46509.427    1645.6717   -44863.755    2.5735344 
  890000          890    14364    882.54017   -46503.819    1638.4918   -44865.327    2.5789629 
  895000          895    14364    882.96851   -46485.002    1639.2871   -44845.715    2.5677688 
  900000          900    14364    879.37514   -46490.432    1632.6157   -44857.816    2.5648708 
  905000          905    14364    881.10955   -46506.213    1635.8358   -44870.378    2.5763294 
  910000          910    14364    888.58075   -46484.587    1649.7065    -44834.88    2.5673871 
  915000          915    14364    866.01961    -46469.08    1607.8204   -44861.259    2.5630087 
  920000          920    14364    885.35041   -46481.233    1643.7092   -44837.523     2.573263 
  925000          925    14364    881.81401   -46493.068    1637.1437   -44855.924    2.5623681 
  930000          930    14364    883.01806   -46454.376    1639.3791   -44814.997    2.5695875 
  935000          935    14364    882.77158   -46476.811    1638.9215    -44837.89    2.5834849 
  940000          940    14364    875.58353   -46499.495    1625.5764   -44873.918    2.5745133 
  945000          945    14364    881.85013   -46459.916    1637.2107   -44822.705     2.573359 
  950000          950    14364     881.7225   -46497.657    1636.9738   -44860.683     2.576314 
  955000          955    14364    882.23039   -46498.975    1637.9167   -44861.058     2.580483 
  960000          960    14364    882.10384   -46468.572    1637.6818    -44830.89    2.5657987 
  965000          965    14364    886.17986   -46488.503    1645.2491   -44843.254    2.5742299 
  970000          970    14364    870.03534   -46496.165    1615.2758   -44880.889    2.5703738 
  975000          975    14364    888.01104   -46468.363    1648.6489   -44819.715    2.5613653 
  980000          980    14364    883.62833    -46495.61    1640.5121   -44855.098    2.5691874 
  985000          985    14364    881.10567   -46492.769    1635.8286    -44856.94    2.5844635 
  990000          990    14364    880.05564   -46482.731    1633.8791   -44848.852    2.5616426 
  995000          995    14364    883.92675   -46467.027    1641.0661   -44825.961     2.566628 
 1000000         1000    14364    885.09668   -46493.424    1643.2382   -44850.186    2.5791936 
 1005000         1005    14364    884.81498    -46493.26    1642.7152   -44850.545    2.5602198 
 1010000         1010    14364    878.87882   -46494.378    1631.6943   -44862.684     2.570848 
 1015000         1015    14364    878.23576   -46504.879    1630.5004   -44874.378    2.5804291 
 1020000         1020    14364    884.90766   -46484.611    1642.8872   -44841.723    2.5724244 
 1025000         1025    14364    885.26187    -46489.59    1643.5448   -44846.046    2.5720582 
 1030000         1030    14364    875.62245   -46478.346    1625.6487   -44852.697      2.57067 
 1035000         1035    14364    889.12701   -46482.209    1650.7207   -44831.488    2.5682985 
 1040000         1040    14364    881.58699    -46477.33    1636.7222   -44840.608      2.57026 
 1045000         1045    14364    886.86023   -46512.443    1646.5123   -44865.931    2.5799553 
 1050000         1050    14364    879.49916   -46500.564     1632.846   -44867.718    2.5768817 
 1055000         1055    14364    885.65333   -46482.443    1644.2716   -44838.171    2.5698051 
 1060000         1060    14364    881.80877   -46499.031     1637.134   -44861.897    2.5774068 
 1065000         1065    14364    874.51316   -46483.337    1623.5892   -44859.748    2.5742654 
 1070000         1070    14364    867.91421   -46484.065    1611.3378   -44872.727    2.5700198 
 1075000         1075    14364     878.4348   -46508.763      1630.87   -44877.893    2.5759969 
 1080000         1080    14364    878.90151   -46500.481    1631.7364   -44868.744     2.575019 
 1085000         1085    14364    877.02078   -46487.091    1628.2447   -44858.847    2.5634124 
 1090000         1090    14364    889.68919   -46501.673    1651.7644   -44849.908      2.56604 
 1095000         1095    14364    884.72075   -46513.029    1642.5402   -44870.489    2.5742835 
 1100000         1100    14364      864.414   -46474.892    1604.8395   -44870.052    2.5708989 
 1105000         1105    14364    886.94249   -46486.086     1646.665   -44839.421    2.5750893 
 1110000         1110    14364    888.11267   -46491.471    1648.8375   -44842.633    2.5776469 
 1115000         1115    14364    887.24081   -46479.507    1647.2189   -44832.288    2.5658571 
 1120000         1120    14364    881.33339   -46470.366    1636.2514   -44834.115    2.5717228 
 1125000         1125    14364    876.21123   -46496.905    1626.7417   -44870.163    2.5784325 
 1130000         1130    14364    886.80759    -46486.23    1646.4146   -44839.815    2.5695966 
 1135000         1135    14364    883.12989   -46490.725    1639.5867   -44851.138    2.5669131 
 1140000         1140    14364    878.09414   -46496.009    1630.2375   -44865.772    2.5724455 
 1145000         1145    14364    888.78575   -46482.607    1650.0872    -44832.52    2.5747367 
 1150000         1150    14364    874.75843   -46500.271    1624.0445   -44876.227     2.567089 
 1155000         1155    14364    882.19047   -46490.779    1637.8426   -44852.936    2.5693422 
 1160000         1160    14364    877.51715   -46495.685    1629.1663   -44866.519    2.5755423 
 1165000         1165    14364    880.84984   -46469.773    1635.3536   -44834.419    2.5683718 
 1170000         1170    14364    880.75049   -46518.174    1635.1692   -44883.004    2.5796718 
 1175000         1175    14364    874.51785   -46515.041    1623.5979   -44891.443     2.577474 
 1180000         1180    14364    889.52973   -46471.539    1651.4684   -44820.071    2.5683528 
 1185000         1185    14364    878.88681   -46497.083    1631.7091   -44865.373    2.5795359 
 1190000         1190    14364    889.54164   -46506.898    1651.4905   -44855.407    2.5780448 
 1195000         1195    14364    883.68237   -46478.831    1640.6124   -44838.219    2.5725135 
 1200000         1200    14364    875.08998   -46497.377    1624.6601   -44872.717    2.5747072 
 1205000         1205    14364    880.12982   -46508.998    1634.0169   -44874.981    2.5836788 
 1210000         1210    14364    881.00783   -46481.874    1635.6469   -44846.227    2.5742698 
 1215000         1215    14364     893.8563   -46489.354     1659.501   -44829.853    2.5759932 
 1220000         1220    14364    894.89591   -46494.767     1661.431   -44833.336    2.5793593 
 1225000         1225    14364     880.1925   -46485.484    1634.1332    -44851.35    2.5686459 
 1230000         1230    14364    879.85446   -46488.297    1633.5056   -44854.791    2.5710929 
 1235000         1235    14364    886.58867   -46492.239    1646.0081   -44846.231    2.5837888 
 1240000         1240    14364    879.15457   -46498.002    1632.2063   -44865.796    2.5730711 
 1245000         1245    14364    873.37206   -46470.716    1621.4707   -44849.246    2.5692012 
 1250000         1250    14364    874.65782   -46501.316    1623.8577   -44877.458    2.5772537 
 1255000         1255    14364     881.4645   -46495.399    1636.4948   -44858.904    2.5727133 
 1260000         1260    14364    882.47356   -46478.007    1638.3682   -44839.639    2.5640628 
 1265000         1265    14364    889.09743   -46504.948    1650.6658   -44854.282    2.5812014 
 1270000         1270    14364    881.15131   -46495.133    1635.9133    -44859.22    2.5734234 
 1275000         1275    14364    866.26169   -46480.604    1608.2698   -44872.335    2.5702686 
 1280000         1280    14364    881.30039   -46498.763    1636.1901   -44862.573     2.578112 
 1285000         1285    14364    880.62528    -46517.72    1634.9367   -44882.783    2.5819249 
 1290000         1290    14364    866.46783   -46481.787    1608.6525   -44873.135    2.5709534 
 1295000         1295    14364    891.28613   -46485.259    1654.7293    -44830.53    2.5779005 
 1300000         1300    14364     880.1397   -46507.507    1634.0352   -44873.472    2.5818783 
 1305000         1305    14364    877.56805   -46481.066    1629.2608   -44851.806    2.5688361 
 1310000         1310    14364    880.17805   -46483.594    1634.1064   -44849.487    2.5750129 
 1315000         1315    14364    885.58817   -46509.724    1644.1506   -44865.573    2.5832408 
 1320000         1320    14364    876.75838   -46472.014    1627.7576   -44844.256    2.5747248 
 1325000         1325    14364    887.72143    -46500.65    1648.1112   -44852.539    2.5739931 
 1330000         1330    14364     890.3837    -46507.82    1653.0538   -44854.766    2.5858857 
 1335000         1335    14364    882.89841   -46470.402    1639.1569   -44831.245    2.5702973 
 1340000         1340    14364    884.58576   -46472.701    1642.2896   -44830.412     2.571267 
 1345000         1345    14364    872.81003   -46507.499    1620.4272   -44887.072    2.5783508 
 1350000         1350    14364    879.77916    -46491.42    1633.3658   -44858.055    2.5760075 
 1355000         1355    14364    883.07939   -46470.857    1639.4929   -44831.364    2.5673788 
 1360000         1360    14364    875.47361   -46489.966    1625.3723   -44864.593    2.5805757 
 1365000         1365    14364     888.5149   -46503.635    1649.5843   -44854.051    2.5762374 
 1370000         1370    14364    887.63283   -46483.776    1647.9467   -44835.829    2.5685364 
 1375000         1375    14364    876.44485   -46481.846    1627.1755    -44854.67    2.5761615 
 1380000         1380    14364    881.99267    -46520.76    1637.4754   -44883.285    2.5802213 
 1385000         1385    14364    878.23627   -46473.774    1630.5014   -44843.272    2.5681928 
 1390000         1390    14364    891.86835   -46492.013    1655.8102   -44836.202     2.575361 
 1395000         1395    14364    883.06667   -46496.996    1639.4693   -44857.526    2.5763192 
 1400000         1400    14364    880.48245   -46477.302    1634.6716    -44842.63    2.5742459 
 1405000         1405    14364    879.57167    -46504.08    1632.9806     -44871.1    2.5801973 
 1410000         1410    14364     873.6185     -46519.8    1621.9282   -44897.872    2.5803907 
 1415000         1415    14364     889.0909   -46477.437    1650.6537   -44826.783    2.5707848 
 1420000         1420    14364    873.93539   -46480.103    1622.5165   -44857.586    2.5726561 
 1425000         1425    14364    879.30393   -46500.921    1632.4835   -44868.437    2.5810676 
 1430000         1430    14364    888.93191   -46490.114    1650.3585   -44839.755    2.5723274 
 1435000         1435    14364    877.27005   -46491.959    1628.7075   -44863.252    2.5769511 
 1440000         1440    14364    873.36214   -46496.047    1621.4522   -44874.595    2.5757522 
[...]
 2040000         2040    14364    885.09611   -46489.004    1643.2371   -44845.767    2.5765452 
 2045000         2045    14364     875.8576   -46498.053    1626.0852   -44871.968    2.5755138 
 2050000         2050    14364    881.51412   -46507.219    1636.5869   -44870.633    2.5801655 
 2055000         2055    14364    880.89767   -46507.434    1635.4424   -44871.992    2.5740187 
 2060000         2060    14364     885.0486    -46494.86    1643.1489   -44851.711    2.5793833 
 2065000         2065    14364    886.62868   -46535.993    1646.0824    -44889.91    2.5774116 
 2070000         2070    14364     882.7487   -46484.062     1638.879   -44845.183    2.5761982 
 2075000         2075    14364    886.11003   -46481.399    1645.1195    -44836.28    2.5752514 
 2080000         2080    14364    889.45647   -46480.708    1651.3324   -44829.375    2.5805421 
 2085000         2085    14364    885.66044   -46502.271    1644.2848   -44857.986    2.5717945 
 2090000         2090    14364     877.2804   -46484.077    1628.7267    -44855.35    2.5693093 
 2095000         2095    14364    875.59439   -46501.398    1625.5965   -44875.802    2.5796269 
 2100000         2100    14364    880.91089   -46485.954     1635.467   -44850.487    2.5732806 
 2105000         2105    14364    885.16419   -46486.706    1643.3635   -44843.342    2.5722908 
 2110000         2110    14364    875.18187   -46472.392    1624.8307   -44847.561    2.5783465 
 2115000         2115    14364    882.33031   -46512.772    1638.1022    -44874.67    2.5759532 
 2120000         2120    14364    888.93927   -46484.313    1650.3722   -44833.941    2.5747456 
 2125000         2125    14364    871.05531   -46492.582    1617.1695   -44875.412    2.5790656 
 2130000         2130    14364    886.90414   -46502.631    1646.5938   -44856.037    2.5755163 
 2135000         2135    14364    883.58468    -46485.25     1640.431   -44844.819    2.5715272 
 2140000         2140    14364    890.71895    -46490.29    1653.6763   -44836.614    2.5802282 
 2145000         2145    14364    871.53693   -46507.245    1618.0636   -44889.182     2.580803 
 2150000         2150    14364    877.81361   -46473.865    1629.7167   -44844.148    2.5733556 
 2155000         2155    14364    884.57649   -46490.906    1642.2724   -44848.634    2.5761999 
 2160000         2160    14364    880.04681   -46502.654    1633.8628   -44868.791    2.5761258 
 2165000         2165    14364    884.11325   -46502.711    1641.4124   -44861.298    2.5745088 
 2170000         2170    14364    869.38072   -46493.099    1614.0605   -44879.038    2.5763334 
 2175000         2175    14364    875.28252   -46483.799    1625.0175   -44858.782    2.5736822 
 2180000         2180    14364     881.1435   -46473.447    1635.8988   -44837.548    2.5738724 
 2185000         2185    14364    884.90032   -46498.208    1642.8736   -44855.335    2.5754276 
 2190000         2190    14364    882.55271   -46492.416    1638.5151   -44853.901    2.5698591 
 2195000         2195    14364    883.21782   -46494.232    1639.7499   -44854.482    2.5757585 
 2200000         2200    14364    886.36439   -46504.766    1645.5917   -44859.174    2.5789867 
 2205000         2205    14364    886.71566   -46500.273    1646.2439   -44854.029    2.5773127 
 2210000         2210    14364    866.29757   -46474.957    1608.3364    -44866.62     2.576157 
 2215000         2215    14364    874.79739   -46471.625    1624.1169   -44847.508    2.5744543 
 2220000         2220    14364    891.93737   -46492.102    1655.9383   -44836.163    2.5787872 
 2225000         2225    14364    871.42869   -46507.629    1617.8627   -44889.766    2.5779689 
 2230000         2230    14364    882.09693   -46495.319    1637.6689    -44857.65    2.5751858 
 2235000         2235    14364    885.16613   -46500.903    1643.3671   -44857.536    2.5771096 
 2240000         2240    14364    878.18573   -46494.379    1630.4075   -44863.971    2.5726439 
 2245000         2245    14364    887.71161   -46481.637    1648.0929   -44833.544     2.576674 
 2250000         2250    14364    881.55888   -46509.665      1636.67   -44872.995    2.5759931 
 2255000         2255    14364    886.87478   -46492.835    1646.5393   -44846.296    2.5796631 
 2260000         2260    14364    885.80556   -46487.379    1644.5542   -44842.825    2.5759668 
 2265000         2265    14364    881.66345   -46495.426    1636.8642   -44858.562    2.5785324 
 2270000         2270    14364    886.29048   -46480.561    1645.4545   -44835.107    2.5775259 
 2275000         2275    14364    883.57054   -46499.903    1640.4048   -44859.498    2.5749378 
 2280000         2280    14364    883.46559   -46507.154    1640.2099   -44866.944    2.5775833 
 2285000         2285    14364    880.50951   -46481.603    1634.7218   -44846.881    2.5746458 
 2290000         2290    14364    889.81533   -46488.157    1651.9986   -44836.158    2.5740013 
 2295000         2295    14364    886.14852   -46488.463     1645.191   -44843.272    2.5790908 
 2300000         2300    14364    882.79733   -46487.399    1638.9693    -44848.43    2.5757566 
 2305000         2305    14364    879.84496   -46493.537     1633.488   -44860.049     2.579052 
 2310000         2310    14364    884.68432   -46487.751    1642.4726   -44845.278    2.5809196 
 2315000         2315    14364    886.26839   -46498.844    1645.4135    -44853.43    2.5719767 
 2320000         2320    14364    884.16094   -46490.745    1641.5009   -44849.245    2.5726409 
 2325000         2325    14364    883.18112   -46493.113    1639.6818   -44853.431       2.5787 
 2330000         2330    14364    881.61857   -46475.485    1636.7808   -44838.704    2.5796071 
 2335000         2335    14364    891.47494   -46489.268    1655.0798   -44834.188    2.5822598 
 2340000         2340    14364    876.62447   -46479.114     1627.509   -44851.605    2.5774025 
 2345000         2345    14364    880.93085   -46480.432     1635.504   -44844.928    2.5815864 
 2350000         2350    14364    881.15708   -46494.672     1635.924   -44858.748    2.5810245 
 2355000         2355    14364    882.65371   -46516.444    1638.7026   -44877.741    2.5761909 
 2360000         2360    14364    879.12651   -46482.493    1632.1542   -44850.338    2.5787021 
 2365000         2365    14364    877.93658   -46490.486     1629.945   -44860.541    2.5783943 
 2370000         2370    14364    877.96551   -46506.131    1629.9987   -44876.132    2.5778741 
 2375000         2375    14364    882.16906   -46498.174    1637.8028   -44860.371    2.5807141 
 2380000         2380    14364    885.42265   -46499.122    1643.8433   -44855.278    2.5716623 
 2385000         2385    14364     882.6212   -46502.303    1638.6423    -44863.66    2.5780936 
 2390000         2390    14364    880.58942   -46477.193    1634.8701   -44842.323    2.5785313 
 2395000         2395    14364    885.00928   -46486.389    1643.0759   -44843.313     2.577421 
 2400000         2400    14364    885.02621    -46503.95    1643.1073   -44860.842    2.5749764 
 2405000         2405    14364    882.83098   -46495.666    1639.0317   -44856.634     2.578211 
 2410000         2410    14364    886.19251   -46494.351    1645.2726   -44849.079    2.5783355 
 2415000         2415    14364    874.25188   -46496.052    1623.1041   -44872.948     2.573507 
 2420000         2420    14364    878.01512   -46492.298    1630.0908   -44862.207    2.5792443 
 2425000         2425    14364    889.25773   -46501.501    1650.9634   -44850.537    2.5771434 
 2430000         2430    14364    876.12997   -46483.283    1626.5909   -44856.692    2.5695462 
 2435000         2435    14364    886.79232   -46492.246    1646.3862   -44845.859    2.5745687 
 2440000         2440    14364    871.24651     -46483.7    1617.5244   -44866.176    2.5684844 
 2445000         2445    14364    888.55672   -46477.845    1649.6619   -44828.183    2.5764556 
 2450000         2450    14364    878.50584    -46499.27    1631.0018   -44868.268     2.575321 
 2455000         2455    14364    888.24059   -46486.459     1649.075   -44837.384    2.5778744 
 2460000         2460    14364     885.2492   -46497.932    1643.5213    -44854.41    2.5767349 
 2465000         2465    14364    877.72999     -46499.9    1629.5614   -44870.339     2.572988 
 2470000         2470    14364    877.88113   -46494.735     1629.842   -44864.893    2.5793804 
 2475000         2475    14364    884.27775    -46487.37    1641.7178   -44845.652    2.5729276 
 2480000         2480    14364     888.3613   -46476.962    1649.2991   -44827.663    2.5750583 
 2485000         2485    14364    878.74456   -46492.498     1631.445   -44861.053    2.5776123 
 2490000         2490    14364    891.10403   -46503.307    1654.3912   -44848.916    2.5764391 
 2495000         2495    14364     885.9237   -46481.947    1644.7736   -44837.173    2.5751592 
 2500000         2500    14364     888.4055   -46486.962    1649.3812   -44837.581    2.5765824 
 2505000         2505    14364    880.69987   -46471.927    1635.0752   -44836.852    2.5725663 
 2510000         2510    14364    883.47293   -46509.691    1640.2236   -44869.467    2.5737398 
 2515000         2515    14364    874.14718   -46491.758    1622.9097   -44868.848    2.5813259 
 2520000         2520    14364    879.67767   -46482.702    1633.1774   -44849.525    2.5695664 
 2525000         2525    14364    886.08206   -46501.274    1645.0676   -44856.207    2.5722566 
 2530000         2530    14364    880.16562    -46479.69    1634.0833   -44845.606    2.5743025 
 2535000         2535    14364    872.80115   -46492.013    1620.4107   -44871.603    2.5748831 
 2540000         2540    14364    881.62531   -46491.498    1636.7933   -44854.705    2.5699748 
 2545000         2545    14364    882.92886   -46482.901    1639.2135   -44843.687    2.5724486 
 2550000         2550    14364    881.70696   -46492.378    1636.9449   -44855.433    2.5737499 
 2555000         2555    14364    874.57264   -46498.616    1623.6996   -44874.916      2.56763 
 2560000         2560    14364    882.03828   -46502.174      1637.56   -44864.614    2.5733126 
 2565000         2565    14364    892.92882   -46500.536     1657.779   -44842.757    2.5720624 
 2570000         2570    14364    886.35302   -46493.324    1645.5706   -44847.753    2.5756177 
 2575000         2575    14364    874.30589   -46491.925    1623.2044   -44868.721    2.5773049 
 2580000         2580    14364    890.40384   -46503.491    1653.0912   -44850.399    2.5776297 
 2585000         2585    14364     894.3289   -46481.062    1660.3784   -44820.684    2.5730962 
 2590000         2590    14364    885.15645   -46460.951    1643.3491   -44817.601    2.5728209 
 2595000         2595    14364    874.32306   -46492.932    1623.2362   -44869.696    2.5732247 
 2600000         2600    14364    883.63322   -46483.169    1640.5212   -44842.648    2.5776335 
 2605000         2605    14364    880.79311   -46493.077    1635.2483   -44857.829     2.575527 
 2610000         2610    14364    873.36097   -46496.453    1621.4501   -44875.002    2.5778522 
 2615000         2615    14364    882.60983   -46492.078    1638.6212   -44853.456    2.5771845 
 2620000         2620    14364    878.76224   -46500.114    1631.4779   -44868.636    2.5755499 
 2625000         2625    14364    881.99993   -46506.697    1637.4888   -44869.208    2.5791573 
 2630000         2630    14364     877.7301   -46498.309    1629.5616   -44868.747    2.5752767 
 2635000         2635    14364    888.79175   -46501.335    1650.0983   -44851.237    2.5751819 
 2640000         2640    14364    874.89494   -46493.367     1624.298   -44869.069    2.5757042 
 2645000         2645    14364    881.46219   -46489.161    1636.4905    -44852.67    2.5743405 
 2650000         2650    14364    874.34472   -46511.574    1623.2765   -44888.297    2.5745608 
 2655000         2655    14364     886.5655   -46492.065    1645.9651     -44846.1     2.574144 
 2660000         2660    14364    881.90816   -46497.606    1637.3185   -44860.288    2.5754595 
 2665000         2665    14364    880.39565   -46506.471    1634.5104   -44871.961    2.5764666 
 2670000         2670    14364    876.00019   -46482.961    1626.3499   -44856.611    2.5762021 
 2675000         2675    14364    884.27465    -46497.02     1641.712   -44855.308    2.5748573 
 2680000         2680    14364    874.00066   -46498.801    1622.6377   -44876.164    2.5729028 
 2685000         2685    14364    881.50894   -46508.265    1636.5773   -44871.687    2.5747683 
 2690000         2690    14364    886.73072   -46491.225    1646.2719   -44844.953    2.5629985 
 2695000         2695    14364    882.62565   -46521.011    1638.6505    -44882.36    2.5740911 
 2700000         2700    14364    880.90468   -46493.602    1635.4554   -44858.147    2.5724214 
 2705000         2705    14364    882.69553   -46500.915    1638.7803   -44862.135    2.5700359 
 2710000         2710    14364    880.73202   -46500.978    1635.1349   -44865.843    2.5716957 
 2715000         2715    14364    880.70601   -46497.186    1635.0866     -44862.1    2.5745718 
 2720000         2720    14364     883.9049   -46479.112    1641.0256   -44838.086    2.5762197 
 2725000         2725    14364    887.95514   -46480.647    1648.5451   -44832.102    2.5755107 
 2730000         2730    14364    880.31232   -46480.323    1634.3557   -44845.968    2.5783941 
 2735000         2735    14364     885.8637   -46479.981    1644.6622   -44835.319    2.5732154 
 2740000         2740    14364    883.90825   -46495.697    1641.0318   -44854.666    2.5737445 
 2745000         2745    14364    869.40205   -46507.866    1614.1001   -44893.766     2.574992 
 2750000         2750    14364    887.09932   -46495.634    1646.9562   -44848.677    2.5705995 
 2755000         2755    14364     885.0239   -46508.488     1643.103   -44865.385    2.5711615 
 2760000         2760    14364    873.42824   -46509.172     1621.575   -44887.597    2.5739273 
 2765000         2765    14364    881.03897   -46477.458    1635.7048   -44841.753    2.5720849 
 2770000         2770    14364    881.72295   -46470.388    1636.9746   -44833.413    2.5674516 
 2775000         2775    14364    875.71528   -46497.246     1625.821   -44871.425    2.5765981 
 2780000         2780    14364    873.75969   -46487.828    1622.1903   -44865.638    2.5741035 
 2785000         2785    14364    884.97428   -46513.003    1643.0109   -44869.992    2.5728872 
 2790000         2790    14364    876.50598   -46498.169     1627.289    -44870.88     2.573483 
 2795000         2795    14364    882.61929   -46479.675    1638.6387   -44841.036    2.5714747 
 2800000         2800    14364    879.78569   -46490.561     1633.378   -44857.183    2.5713125 
 2805000         2805    14364    879.23706   -46508.098    1632.3594   -44875.739    2.5738257 
 2810000         2810    14364    882.32991   -46491.809    1638.1015   -44853.708    2.5718975 
 2815000         2815    14364     873.4103   -46482.902    1621.5416    -44861.36    2.5700138 
 2820000         2820    14364    883.52307    -46494.69    1640.3166   -44854.373    2.5729853 
 2825000         2825    14364    882.29371   -46477.263    1638.0343   -44839.229    2.5753692 
 2830000         2830    14364    884.60717    -46514.56    1642.3294   -44872.231    2.5610969 
 2835000         2835    14364    868.54023   -46478.822    1612.5001   -44866.322    2.5726767 
 2840000         2840    14364    884.49626   -46492.147    1642.1234   -44850.023    2.5730416 
 2845000         2845    14364    877.88737   -46500.632    1629.8536   -44870.778    2.5734811 
 2850000         2850    14364    879.58431   -46506.389    1633.0041   -44873.384    2.5665171 
 2855000         2855    14364    879.77899   -46498.276    1633.3655    -44864.91    2.5728817 
 2860000         2860    14364    880.60019   -46486.417    1634.8901   -44851.527    2.5730282 
 2865000         2865    14364    880.28545   -46503.542    1634.3058   -44869.236    2.5686472 
 2870000         2870    14364    881.23483    -46504.89    1636.0684   -44868.821    2.5689919 
 2875000         2875    14364    882.89115   -46499.682    1639.1434   -44860.538    2.5706163 
 2880000         2880    14364    884.39147   -46479.735    1641.9289   -44837.806    2.5698649 
 2885000         2885    14364     881.6786   -46492.447    1636.8923   -44855.554    2.5757139 
 2890000         2890    14364    881.71682   -46496.209    1636.9632   -44859.246    2.5648691 
 2895000         2895    14364    895.21159   -46492.071    1662.0171   -44830.054    2.5752486 
 2900000         2900    14364    874.21045   -46495.244    1623.0272   -44872.217     2.577805 
 2905000         2905    14364    879.10486   -46503.811     1632.114   -44871.697    2.5742179 
 2910000         2910    14364    879.72122   -46499.999    1633.2583   -44866.741    2.5745903 
 2915000         2915    14364    891.26774   -46484.137    1654.6951   -44829.442    2.5743097 
 2920000         2920    14364    877.64451   -46480.683    1629.4027   -44851.281    2.5768896 
 2925000         2925    14364    890.01266   -46487.989     1652.365   -44835.624    2.5753341 
 2930000         2930    14364    897.59268   -46489.951    1666.4378   -44823.513    2.5757885 
 2935000         2935    14364    877.42237   -46496.527    1628.9903   -44867.536    2.5695556 
 2940000         2940    14364    880.92551   -46505.373    1635.4941   -44869.879    2.5684064 
 2945000         2945    14364    875.69146    -46493.67    1625.7768   -44867.893    2.5744196 
 2950000         2950    14364    883.44481   -46483.939    1640.1713   -44843.768    2.5689714 
 2955000         2955    14364    884.92242   -46502.882    1642.9146   -44859.968    2.5736882 
 2960000         2960    14364    874.70528   -46489.204    1623.9459   -44865.258    2.5725951 
 2965000         2965    14364    886.36583   -46503.211    1645.5944   -44857.617    2.5694461 
 2970000         2970    14364    880.06542   -46490.176    1633.8973   -44856.279    2.5639097 
 2975000         2975    14364    882.92663   -46480.335    1639.2093   -44841.125    2.5718832 
 2980000         2980    14364    878.61802   -46513.815    1631.2101   -44882.605    2.5786532 
 2985000         2985    14364    887.35814   -46485.838    1647.4367   -44838.401    2.5750229 
 2990000         2990    14364    886.65447   -46492.736    1646.1303   -44846.605    2.5766413 
 2995000         2995    14364    883.93753   -46501.561    1641.0861   -44860.474    2.5740816 
 3000000         3000    14364    882.83015   -46493.249    1639.0302   -44854.219    2.5759089 
Loop time of 17164.6 on 8 procs for 3000000 steps with 14364 atoms

Performance: 15.101 ns/day, 1.589 hours/ns, 174.778 timesteps/s
100.0% CPU use with 8 MPI tasks x no OpenMP threads

MPI task timing breakdown:
Section |  min time  |  avg time  |  max time  |%varavg| %total
---------------------------------------------------------------
Pair    | 15846      | 16090      | 16366      | 132.7 | 93.74
Neigh   | 239.48     | 250.7      | 257.3      |  42.7 |  1.46
Comm    | 313.32     | 570.43     | 844.71     | 663.1 |  3.32
Output  | 0.64462    | 0.64624    | 0.65658    |   0.5 |  0.00
Modify  | 140.67     | 180.08     | 257.32     | 338.2 |  1.05
Other   |            | 72.47      |            |       |  0.42

Nlocal:         1795.5 ave        1812 max        1776 min
Histogram: 2 0 0 0 0 2 1 1 1 1
Nghost:          10612 ave       11355 max        9679 min
Histogram: 2 0 1 1 0 0 0 0 0 4
Neighs:         123390 ave      126540 max      119573 min
Histogram: 2 0 0 1 0 1 0 1 1 2
FullNghs:       249911 ave      251125 max      248069 min
Histogram: 1 0 1 0 0 2 0 1 2 1

Total # of neighbors = 1999288
Ave neighs/atom = 139.18741
Neighbor list builds = 62670
Dangerous builds = 0
All done
Total wall time: 4:46:41
