LAMMPS (7 Jan 2022)
Lattice spacing in x,y,z = 4.1031 4.1031 4.1031
Created orthogonal box = (-123.093 -123.093 0) to (123.093 123.093 4.1031)
  2 by 4 by 1 MPI processor grid
Lattice spacing in x,y,z = 5.1900566 5.1900566 4.1031
Created 14365 atoms
  using lattice units in orthogonal box = (-123.093 -123.093 0) to (123.093 123.093 4.1031)
  create_atoms CPU = 0.001 seconds
Deleted 1785 atoms, new total = 12580
Lattice spacing in x,y,z = 5.1900566 5.1900566 4.1031
Created 1785 atoms
  using lattice units in orthogonal box = (-123.093 -123.093 0) to (123.093 123.093 4.1031)
  create_atoms CPU = 0.001 seconds
12580 atoms in group large
1785 atoms in group small
Displacing atoms ...
System init for delete_atoms ...
Neighbor list info ...
  update every 1 steps, delay 10 steps, check yes
  max neighbors/atom: 2000, page size: 100000
  master list distance cutoff = 8.28721
  ghost atom cutoff = 8.28721
  binsize = 4.143605, bins = 60 60 1
  2 neighbor lists, perpetual/occasional/extra = 1 1 0
  (1) command delete_atoms, occasional
      attributes: full, newton on
      pair build: full/bin/atomonly
      stencil: full/bin/3d
      bin: standard
  (2) pair eam/alloy, perpetual
      attributes: half, newton on
      pair build: half/bin/atomonly/newton
      stencil: half/bin/3d
      bin: standard
Deleted 2 atoms, new total = 14363
WARNING: Using 'neigh_modify every 1 delay 0 check yes' setting during minimization (../min.cpp:187)
Neighbor list info ...
  update every 1 steps, delay 0 steps, check yes
  max neighbors/atom: 2000, page size: 100000
  master list distance cutoff = 8.28721
  ghost atom cutoff = 8.28721
  binsize = 4.143605, bins = 60 60 1
  2 neighbor lists, perpetual/occasional/extra = 1 1 0
  (1) pair eam/alloy, perpetual
      attributes: half, newton on
      pair build: half/bin/atomonly/newton
      stencil: half/bin/3d
      bin: standard
  (2) compute centro/atom, occasional
      attributes: full, newton on
      pair build: full/bin/atomonly
      stencil: full/bin/3d
      bin: standard
Setting up cg style minimization ...
  Unit style    : metal
  Current step  : 0
Per MPI rank memory allocation (min/avg/max) = 8.502 | 8.503 | 8.504 Mbytes
Step PotEng Lx Ly Lz Press Pxx Pyy Pzz c_eatoms 
       0   -47827.289      246.186      246.186       4.1031   -27943.218   -26307.211   -27919.409   -29603.034   -47827.289 
      10    -48041.14      246.186      246.186       4.1031   -27019.191   -25769.216   -27178.413   -28109.943    -48041.14 
      20   -48051.008      246.186      246.186       4.1031   -26905.769   -25614.713   -26970.872   -28131.722   -48051.008 
      30   -48055.059      246.186      246.186       4.1031    -26808.93   -25504.398   -26804.157   -28118.235   -48055.059 
      40   -48057.268      246.186      246.186       4.1031   -26769.076   -25427.071   -26745.353   -28134.803   -48057.268 
      50   -48058.712      246.186      246.186       4.1031   -26828.758   -25453.273   -26834.941   -28198.061   -48058.712 
      60   -48059.976      246.186      246.186       4.1031   -26904.236   -25537.358   -26904.036   -28271.314   -48059.976 
      70   -48060.979      246.186      246.186       4.1031   -26932.238   -25560.024   -26938.657   -28298.033   -48060.979 
      80   -48062.018      246.186      246.186       4.1031   -27046.674   -25655.652   -27083.108   -28401.263   -48062.018 
      90    -48062.93      246.186      246.186       4.1031   -27145.801   -25754.053    -27193.96   -28489.389    -48062.93 
     100   -48063.965      246.186      246.186       4.1031   -27261.675   -25871.666    -27337.63   -28575.729   -48063.965 
     110   -48064.535      246.186      246.186       4.1031   -27293.297   -25903.721   -27378.065   -28598.104   -48064.535 
     120   -48064.933      246.186      246.186       4.1031    -27304.65   -25911.713   -27392.133   -28610.103   -48064.933 
     130   -48065.411      246.186      246.186       4.1031   -27334.463   -25932.854   -27436.587   -28633.949   -48065.411 
     140   -48065.799      246.186      246.186       4.1031   -27367.267   -25951.216   -27489.999   -28660.585   -48065.799 
     150    -48065.95      246.186      246.186       4.1031   -27371.118   -25955.954    -27495.14   -28662.261    -48065.95 
     160   -48066.094      246.186      246.186       4.1031   -27385.549   -25979.166   -27511.447   -28666.035   -48066.094 
     170   -48066.545      246.186      246.186       4.1031   -27465.553   -26110.579    -27572.76    -28713.32   -48066.545 
     180   -48066.943      246.186      246.186       4.1031    -27487.55   -26161.711   -27579.794   -28721.143   -48066.943 
     190   -48067.166      246.186      246.186       4.1031   -27483.056   -26164.508   -27569.818   -28714.842   -48067.166 
     200   -48067.353      246.186      246.186       4.1031   -27470.282   -26152.142   -27553.732   -28704.973   -48067.353 
     210   -48067.438      246.186      246.186       4.1031   -27475.519   -26160.972   -27559.532   -28706.054   -48067.438 
     220   -48067.509      246.186      246.186       4.1031   -27476.071   -26164.198   -27559.578   -28704.437   -48067.509 
     230   -48067.609      246.186      246.186       4.1031   -27475.072   -26162.075   -27557.571    -28705.57   -48067.609 
     240   -48067.684      246.186      246.186       4.1031   -27472.731   -26160.457    -27554.95   -28702.785   -48067.684 
     250    -48067.72      246.186      246.186       4.1031   -27473.917    -26160.68   -27557.534   -28703.538    -48067.72 
     260   -48067.779      246.186      246.186       4.1031   -27477.107   -26167.789   -27566.134   -28697.398   -48067.779 
     270   -48067.866      246.186      246.186       4.1031   -27492.666   -26187.578   -27586.105   -28704.314   -48067.866 
     280   -48067.931      246.186      246.186       4.1031   -27505.261   -26196.927   -27606.457   -28712.398   -48067.931 
     290   -48068.083      246.186      246.186       4.1031   -27516.387   -26199.513   -27628.858    -28720.79   -48068.083 
     300    -48068.33      246.186      246.186       4.1031   -27523.372   -26219.451   -27621.274   -28729.392    -48068.33 
     310   -48068.439      246.186      246.186       4.1031   -27521.383   -26226.921   -27602.848    -28734.38   -48068.439 
     320     -48068.5      246.186      246.186       4.1031   -27511.945    -26221.04   -27586.689   -28728.107     -48068.5 
     330   -48068.524      246.186      246.186       4.1031   -27509.984   -26217.985   -27585.543   -28726.425   -48068.524 
     340   -48068.532      246.186      246.186       4.1031   -27509.855   -26215.609   -27586.133   -28727.822   -48068.532 
     350   -48068.537      246.186      246.186       4.1031   -27508.903   -26212.364   -27585.623   -28728.721   -48068.537 
     360    -48068.54      246.186      246.186       4.1031   -27507.867   -26210.335   -27585.262   -28728.004    -48068.54 
     370   -48068.543      246.186      246.186       4.1031   -27507.624     -26209.6    -27586.81   -28726.461   -48068.543 
     380   -48068.546      246.186      246.186       4.1031    -27508.32   -26209.353   -27588.809   -28726.798   -48068.546 
     390   -48068.548      246.186      246.186       4.1031   -27509.036   -26209.458   -27590.324   -28727.328   -48068.548 
     400    -48068.55      246.186      246.186       4.1031   -27509.619   -26209.652   -27592.214    -28726.99    -48068.55 
     410   -48068.551      246.186      246.186       4.1031   -27509.996   -26210.062   -27593.349   -28726.578   -48068.551 
     420   -48068.552      246.186      246.186       4.1031    -27510.62   -26210.183   -27594.397   -28727.281   -48068.552 
     430   -48068.552      246.186      246.186       4.1031   -27510.828   -26210.046   -27594.956   -28727.484   -48068.552 
     440   -48068.553      246.186      246.186       4.1031   -27510.786   -26210.222   -27595.056   -28727.081   -48068.553 
     450   -48068.553      246.186      246.186       4.1031   -27510.678   -26210.206   -27595.087   -28726.742   -48068.553 
     460   -48068.553      246.186      246.186       4.1031   -27510.617   -26210.212    -27595.05   -28726.589   -48068.553 
     470   -48068.553      246.186      246.186       4.1031   -27510.579   -26210.174   -27595.021   -28726.543   -48068.553 
     480   -48068.553      246.186      246.186       4.1031    -27510.56   -26210.216   -27594.998   -28726.465   -48068.553 
     490   -48068.553      246.186      246.186       4.1031    -27510.53    -26210.25   -27594.965   -28726.375   -48068.553 
     500   -48068.553      246.186      246.186       4.1031   -27510.526   -26210.272   -27594.967   -28726.339   -48068.553 
     510   -48068.553      246.186      246.186       4.1031   -27510.514   -26210.257   -27594.966   -28726.319   -48068.553 
     520   -48068.553      246.186      246.186       4.1031   -27510.512   -26210.249   -27594.977   -28726.309   -48068.553 
     530   -48068.553      246.186      246.186       4.1031   -27510.506   -26210.238    -27594.98   -28726.301   -48068.553 
     540   -48068.553      246.186      246.186       4.1031   -27510.512   -26210.228   -27594.993   -28726.316   -48068.553 
     550   -48068.553      246.186      246.186       4.1031   -27510.522   -26210.223   -27595.009   -28726.334   -48068.553 
     560   -48068.553      246.186      246.186       4.1031   -27510.523   -26210.217   -27595.014   -28726.336   -48068.553 
     570   -48068.553      246.186      246.186       4.1031   -27510.528   -26210.222   -27595.024   -28726.338   -48068.553 
     580   -48068.553      246.186      246.186       4.1031   -27510.527   -26210.219   -27595.028   -28726.335   -48068.553 
     590   -48068.553      246.186      246.186       4.1031   -27510.526   -26210.214   -27595.029   -28726.336   -48068.553 
     600   -48068.553      246.186      246.186       4.1031   -27510.526    -26210.21   -27595.032   -28726.335   -48068.553 
     610   -48068.553      246.186      246.186       4.1031   -27510.526   -26210.211   -27595.036   -28726.331   -48068.553 
     620   -48068.553      246.186      246.186       4.1031   -27510.526   -26210.211    -27595.04   -28726.326   -48068.553 
     630   -48068.553      246.186      246.186       4.1031   -27510.527   -26210.215   -27595.042   -28726.324   -48068.553 
     640   -48068.553      246.186      246.186       4.1031   -27510.527   -26210.216   -27595.043   -28726.322   -48068.553 
     650   -48068.553      246.186      246.186       4.1031   -27510.527   -26210.214   -27595.044   -28726.322   -48068.553 
     658   -48068.553      246.186      246.186       4.1031   -27510.526   -26210.214   -27595.044   -28726.322   -48068.553 
Loop time of 7.49127 on 8 procs for 658 steps with 14363 atoms

99.5% CPU use with 8 MPI tasks x no OpenMP threads

Minimization stats:
  Stopping criterion = energy tolerance
  Energy initial, next-to-last, final = 
     -47827.2893904044  -48068.5528505876  -48068.5528505877
  Force two-norm initial, final = 93.333374 4.9348745e-05
  Force max component initial, final = 17.202146 1.0385407e-05
  Final line search alpha, max atom move = 1 1.0385407e-05
  Iterations, force evaluations = 658 1239

MPI task timing breakdown:
Section |  min time  |  avg time  |  max time  |%varavg| %total
---------------------------------------------------------------
Pair    | 6.0865     | 6.1894     | 6.4934     |   5.5 | 82.62
Neigh   | 0.052771   | 0.053371   | 0.054093   |   0.2 |  0.71
Comm    | 0.1666     | 0.43163    | 0.56153    |  23.8 |  5.76
Output  | 0.51886    | 0.54471    | 0.668      |   6.3 |  7.27
Modify  | 0          | 0          | 0          |   0.0 |  0.00
Other   |            | 0.2722     |            |       |  3.63

Nlocal:        1795.38 ave        1806 max        1783 min
Histogram: 2 0 0 1 0 0 1 3 0 1
Nghost:          12363 ave       12424 max       12294 min
Histogram: 2 0 0 2 0 0 0 1 1 2
Neighs:         124687 ave      125308 max      123580 min
Histogram: 1 0 1 0 0 1 0 1 3 1
FullNghs:       249378 ave      250613 max      246646 min
Histogram: 1 0 0 0 1 1 0 0 3 2

Total # of neighbors = 1995028
Ave neighs/atom = 138.90051
Neighbor list builds = 12
Dangerous builds = 0
WARNING: Using 'neigh_modify every 1 delay 0 check yes' setting during minimization (../min.cpp:187)
Setting up cg style minimization ...
  Unit style    : metal
  Current step  : 0
WARNING: Energy due to 3 extra global DOFs will be included in minimizer energies
Per MPI rank memory allocation (min/avg/max) = 7.115 | 7.116 | 7.117 Mbytes
Step PotEng Lx Ly Lz Press Pxx Pyy Pzz c_eatoms 
       0   -48068.553      246.186      246.186       4.1031   -27510.526   -26210.214   -27595.044   -28726.322   -48068.553 
      10   -48102.935      246.186    243.72414       4.1031   -20177.617   -20774.198   -16668.893    -23089.76   -48102.935 
      20   -48120.107      246.186    241.26228       4.1031   -12601.795   -15153.776   -5378.4178    -17273.19   -48120.107 
      30   -48122.534      246.186    240.11169       4.1031   -9022.2151   -12481.402   -131.50358    -14453.74   -48122.534 
      40   -48122.768      246.186    240.15724       4.1031   -9233.5556   -12623.324   -527.18719   -14550.156   -48122.768 
      50    -48122.85      246.186    240.04651       4.1031   -8892.0811    -12364.06   -24.657583   -14287.525    -48122.85 
      60   -48122.911      246.186    240.02624       4.1031   -8863.8218   -12344.566   -4.1420072   -14242.758   -48122.911 
      70   -48122.948      246.186    240.03563       4.1031   -8900.9288   -12368.126   -62.658984   -14272.002   -48122.948 
      80   -48122.951      246.186    240.03283       4.1031     -8883.05   -12354.399   -21.514922   -14273.236   -48122.951 
      90   -48122.961      246.186    240.02529       4.1031   -8862.4472   -12338.571    1.3020289   -14250.073   -48122.961 
     100   -48122.966      246.186    240.02701       4.1031   -8869.6724   -12344.223   -11.296387   -14253.498   -48122.966 
     110   -48122.969      246.186    240.02463       4.1031   -8862.6579   -12339.515  -0.20470091   -14248.254   -48122.969 
     120   -48122.972      246.186    240.02398       4.1031   -8860.9133    -12337.67    1.5714745   -14246.642   -48122.972 
     130   -48122.975      246.186    240.02675       4.1031   -8870.4405   -12344.637   -12.652728   -14254.032   -48122.975 
     140   -48122.978      246.186    240.02412       4.1031   -8862.5805   -12339.162  -0.24590159   -14248.334   -48122.978 
     150    -48122.98      246.186    240.02352       4.1031   -8861.0978   -12337.532     1.215633   -14246.977    -48122.98 
     160   -48122.983      246.186     240.0265       4.1031   -8871.4043   -12345.065   -14.253449   -14254.895   -48122.983 
     170   -48122.985      246.186    240.02351       4.1031   -8862.4013   -12338.698   -0.2668627   -14248.239   -48122.985 
     180   -48122.987      246.186    240.02293       4.1031   -8861.0427   -12337.212    1.0434196    -14246.96   -48122.987 
     190    -48122.99      246.186    240.02589       4.1031   -8871.2997   -12344.723   -14.384071   -14254.792    -48122.99 
     200   -48122.992      246.186    240.02286       4.1031   -8862.1643   -12338.237  -0.27322996   -14247.983   -48122.992 
     210   -48122.994      246.186    240.02231       4.1031   -8860.9072    -12336.88   0.93857227   -14246.781   -48122.994 
     220   -48122.996      246.186    240.02518       4.1031   -8870.8819   -12344.208   -14.067895    -14254.37   -48122.996 
     230   -48122.998      246.186    240.02222       4.1031   -8861.9307   -12337.852  -0.27357483   -14247.667   -48122.998 
     240       -48123      246.186    240.02169       4.1031   -8860.7576   -12336.607   0.86533379   -14246.531       -48123 
     250   -48123.002      246.186    240.02451       4.1031   -8870.5358   -12343.821   -13.836956    -14253.95   -48123.002 
     260   -48123.004      246.186    240.02159       4.1031   -8861.7283    -12337.58  -0.27506223    -14247.33   -48123.004 
     270   -48123.005      246.186    240.02108       4.1031   -8860.5918   -12336.408    0.8493875   -14246.217   -48123.005 
     280   -48123.007      246.186    240.02387       4.1031   -8870.3086   -12343.616   -13.744205   -14253.565   -48123.007 
     290   -48123.009      246.186    240.02097       4.1031   -8861.5678   -12337.454  -0.27184553   -14246.978   -48123.009 
     300   -48123.011      246.186    240.02042       4.1031   -8860.3416   -12336.251    1.0053859    -14245.78   -48123.011 
     310   -48123.013      246.186    240.02324       4.1031   -8870.1527    -12343.57   -13.710767   -14253.177   -48123.013 
     320   -48123.015      246.186    240.02035       4.1031   -8861.4552   -12337.484  -0.26788184   -14246.614   -48123.015 
     330   -48123.017      246.186    240.01976       4.1031   -8860.1111   -12336.208    1.1776338   -14245.303   -48123.017 
     340    -48123.02      246.186    240.02264       4.1031   -8870.0822   -12343.674   -13.767986   -14252.805    -48123.02 
     350   -48123.022      246.186    240.01974       4.1031   -8861.3572    -12337.59  -0.26901542   -14246.213   -48123.022 
     360   -48123.024      246.186    240.01916       4.1031    -8859.972   -12336.284    1.2236946   -14244.856   -48123.024 
     370   -48123.027      246.186    240.02205       4.1031   -8869.9683    -12343.77   -13.770553   -14252.365   -48123.027 
     380   -48123.029      246.186    240.01916       4.1031    -8861.231   -12337.667  -0.27318587   -14245.753   -48123.029 
     390   -48123.031      246.186     240.0186       4.1031    -8859.911   -12336.407    1.1161759   -14244.443   -48123.031 
     400   -48123.034      246.186     240.0215       4.1031   -8869.8785    -12343.86   -13.853776   -14251.922   -48123.034 
     410   -48123.036      246.186     240.0186       4.1031   -8861.0667   -12337.681  -0.27836698    -14245.24   -48123.036 
     420   -48123.038      246.186    240.01808       4.1031   -8859.8239    -12336.48    1.0004152   -14243.992   -48123.038 
     430    -48123.04      246.186    240.02093       4.1031   -8869.5936   -12343.773   -13.691118   -14251.316    -48123.04 
     440   -48123.042      246.186    240.01806       4.1031   -8860.8669   -12337.634  -0.27382409   -14244.693   -48123.042 
     450   -48123.044      246.186    240.01757       4.1031   -8859.6627   -12336.464   0.95902629   -14243.483   -48123.044 
     460   -48123.046      246.186    240.02032       4.1031   -8869.0721   -12343.479   -13.198604   -14250.539   -48123.046 
     470   -48123.048      246.186    240.01757       4.1031   -8860.6554    -12337.55  -0.26461128   -14244.152   -48123.048 
     480   -48123.049      246.186    240.01711       4.1031   -8859.5197   -12336.441   0.89381322   -14243.012   -48123.049 
     490   -48123.051      246.186    240.01974       4.1031   -8868.4821   -12343.122   -12.584721   -14249.739   -48123.051 
     500   -48123.053      246.186    240.01712       4.1031   -8860.4603   -12337.468  -0.25775406   -14243.655   -48123.053 
     510   -48123.054      246.186    240.01671       4.1031    -8859.437   -12336.464   0.77645422   -14242.624   -48123.054 
     520   -48123.056      246.186    240.01923       4.1031   -8867.9657   -12342.828    -12.03348   -14249.035   -48123.056 
     530   -48123.057      246.186    240.01673       4.1031   -8860.2989    -12337.42  -0.25115844   -14243.225   -48123.057 
     540   -48123.059      246.186    240.01636       4.1031   -8859.3871   -12336.526   0.66793065   -14242.303   -48123.059 
     550    -48123.06      246.186    240.01875       4.1031   -8867.4586   -12342.561   -11.432768   -14248.382    -48123.06 
     560   -48123.061      246.186    240.01637       4.1031   -8860.1703   -12337.425  -0.22328811   -14242.863   -48123.061 
     570   -48123.062      246.186    240.01603       4.1031   -8859.3398   -12336.623    0.6268174   -14242.023   -48123.062 
     580   -48123.064      246.186    240.01809       4.1031    -8866.357   -12341.897   -9.8705248   -14247.304   -48123.064 
     590   -48123.065      246.186    240.01605       4.1031   -8860.1254   -12337.551  -0.22954649   -14242.596   -48123.065 
     600   -48123.065      246.186    240.01572       4.1031   -8859.3263   -12336.812   0.62715211   -14241.794   -48123.065 
     610   -48123.067      246.186    240.01782       4.1031   -8866.4634   -12342.208    -10.00398   -14247.179   -48123.067 
     620   -48123.068      246.186    240.01574       4.1031   -8860.1316   -12337.799  -0.20271355   -14242.393   -48123.068 
     630   -48123.068      246.186     240.0154       4.1031   -8859.3226   -12337.092   0.71472298   -14241.591   -48123.068 
     640    -48123.07      246.186    240.01758       4.1031   -8866.7556   -12342.759   -10.295194   -14247.212    -48123.07 
     650    -48123.07      246.186    240.01545       4.1031   -8860.2705   -12338.273  -0.22046395   -14242.318    -48123.07 
     660   -48123.071      246.186    240.01514       4.1031   -8859.5673     -12337.7   0.61189909   -14241.614   -48123.071 
     670   -48123.072      246.186    240.01599       4.1031   -8862.7929   -12340.305    -4.052736   -14244.021   -48123.072 
     680   -48123.073      246.186    240.01517       4.1031   -8860.5441   -12339.023  -0.22175352   -14242.388   -48123.073 
     690   -48123.074      246.186    240.01484       4.1031   -8859.8663   -12338.546   0.66341301   -14241.716   -48123.074 
     700   -48123.075      246.186    240.01708       4.1031   -8867.6321   -12344.632   -10.627519   -14247.636   -48123.075 
     710   -48123.076      246.186    240.01488       4.1031   -8861.0671    -12340.24   -0.2261021   -14242.735   -48123.076 
     720   -48123.077      246.186    240.01452       4.1031   -8860.3528   -12339.796   0.79245217   -14242.055   -48123.077 
     730   -48123.079      246.186    240.01688       4.1031   -8868.5922   -12346.318   -11.085626   -14248.373   -48123.079 
     740    -48123.08      246.186     240.0146       4.1031    -8861.794   -12341.826  -0.22541141   -14243.331    -48123.08 
     750   -48123.082      246.186    240.01417       4.1031   -8860.9324   -12341.284    1.0259094    -14242.54   -48123.082 
     760   -48123.083      246.186    240.01654       4.1031   -8869.2608   -12347.887   -10.957999   -14248.938   -48123.083 
     770   -48123.085      246.186    240.01428       4.1031   -8862.5529   -12343.464  -0.22230382   -14243.973   -48123.085 
     780   -48123.086      246.186    240.01385       4.1031   -8861.6863   -12342.883   0.98748068   -14243.164   -48123.086 
     790   -48123.088      246.186    240.01626       4.1031   -8870.1244   -12349.521   -11.222873   -14249.629   -48123.088 
     800   -48123.089      246.186    240.01393       4.1031   -8863.2067   -12344.892  -0.24291552   -14244.485   -48123.089 
     810   -48123.091      246.186    240.01355       4.1031   -8862.4852   -12344.384   0.70298272   -14243.774   -48123.091 
     820   -48123.092      246.186    240.01595       4.1031   -8870.8788   -12350.938   -11.513589   -14250.185   -48123.092 
     830   -48123.093      246.186    240.01354       4.1031   -8863.6937    -12346.06  -0.21009397   -14244.811   -48123.093 
     840   -48123.094      246.186    240.01318       4.1031   -8863.0765   -12345.632   0.57256102    -14244.17   -48123.094 
     850   -48123.096      246.186    240.01553       4.1031   -8871.3791   -12352.119    -11.52997   -14250.488   -48123.096 
     860   -48123.097      246.186    240.01311       4.1031   -8864.1969   -12347.252  -0.23764375   -14245.101   -48123.097 
     870   -48123.098      246.186    240.01272       4.1031   -8863.5618   -12346.855     0.607099   -14244.437   -48123.098 
     880   -48123.099      246.186    240.01511       4.1031   -8872.0726    -12353.55    -11.76048   -14250.908   -48123.099 
     890     -48123.1      246.186    240.01262       4.1031   -8864.7779    -12348.65  -0.24491625   -14245.438     -48123.1 
     900   -48123.102      246.186     240.0122       4.1031   -8864.1504   -12348.318   0.63924887   -14244.773   -48123.102 
     910   -48123.103      246.186    240.01474       4.1031   -8873.3974   -12355.664   -12.714889   -14251.813   -48123.103 
     920   -48123.105      246.186    240.01204       4.1031   -8865.5745   -12350.496  -0.25630984   -14245.971   -48123.105 
     930   -48123.106      246.186    240.01151       4.1031   -8864.8298   -12350.174   0.89117089   -14245.206   -48123.106 
     940   -48123.109      246.186    240.01437       4.1031   -8875.3881   -12358.688   -14.213697   -14253.262   -48123.109 
     950   -48123.111      246.186    240.01135       4.1031   -8866.7479   -12353.129  -0.28101357   -14246.833   -48123.111 
     960   -48123.113      246.186    240.01074       4.1031   -8865.9481   -12352.947    1.0844816   -14245.982   -48123.113 
     970   -48123.116      246.186    240.01424       4.1031   -8878.8126   -12363.518   -17.141931   -14255.778   -48123.116 
     980    -48123.12      246.186    240.01063       4.1031    -8868.497   -12357.076  -0.32363694   -14248.091    -48123.12 
     990   -48123.123      246.186    240.00983       4.1031   -8867.3026   -12356.956    1.8945551   -14246.846   -48123.123 
    1000   -48123.129      246.186    240.01275       4.1031   -8878.6136   -12366.991   -13.439118    -14255.41   -48123.129 
    1010   -48123.135      246.186    240.00996       4.1031   -8871.1239   -12363.181  -0.23157893   -14249.959   -48123.135 
    1020   -48123.142      246.186    240.01896       4.1031   -8901.5408   -12386.748     -45.1588   -14272.716   -48123.142 
    1030   -48123.153      246.186    240.00989       4.1031   -8875.5204   -12371.594   -1.3760431   -14253.591   -48123.153 
    1040   -48123.154      246.186    240.01042       4.1031   -8878.4595   -12375.364    -3.890114   -14256.124   -48123.154 
    1050   -48123.195      246.186    240.03316       4.1031      -8959.6   -12445.529   -116.40189   -14316.869   -48123.195 
    1060   -48123.379      246.186    239.98599       4.1031   -8805.7053   -12328.691     107.7313   -14196.156   -48123.379 
    1070   -48123.393      246.186    240.00917       4.1031   -8878.8812   -12381.238    -2.959871   -14252.445   -48123.393 
    1080   -48123.457      246.186    240.01321       4.1031   -8891.2971   -12388.667     -23.8783   -14261.347   -48123.457 
    1090   -48123.475      246.186    240.01078       4.1031   -8882.2791   -12379.668   -13.790092   -14253.379   -48123.475 
    1100   -48123.498      246.186    240.03373       4.1031   -8955.6055   -12432.504   -123.29784   -14311.015   -48123.498 
    1110   -48123.516      246.186     240.0188       4.1031   -8906.8659   -12394.551   -52.628299   -14273.419   -48123.516 
    1120   -48123.523      246.186    240.00807       4.1031   -8872.2468   -12369.078  -0.51626233   -14247.146   -48123.523 
    1130   -48123.527      246.186    240.00764       4.1031   -8870.4576   -12366.989   0.97463098   -14245.359   -48123.527 
    1140   -48123.532      246.186     240.0111       4.1031   -8881.2802   -12374.577   -15.655242   -14253.609   -48123.532 
    1150   -48123.536      246.186      240.008       4.1031   -8871.2877   -12367.235  -0.37345918   -14246.254   -48123.536 
    1160   -48123.539      246.186    240.00762       4.1031   -8869.7315   -12365.464    1.0088101   -14244.739   -48123.539 
    1170   -48123.543      246.186    240.01114       4.1031   -8880.8365   -12373.429   -15.850339    -14253.23   -48123.543 
    1180   -48123.545      246.186    240.00798       4.1031    -8870.741   -12366.122   -0.3215711    -14245.78   -48123.545 
    1190   -48123.548      246.186    240.00763       4.1031   -8869.3887   -12364.671   0.94701522   -14244.442   -48123.548 
    1200   -48123.551      246.186    240.01118       4.1031   -8880.7371   -12372.998   -16.105121   -14253.108   -48123.551 
    1210   -48123.554      246.186    240.00795       4.1031   -8870.4934   -12365.675  -0.29371954   -14245.512   -48123.554 
    1220   -48123.556      246.186    240.00761       4.1031   -8869.3054   -12364.497   0.88486622   -14244.304   -48123.556 
    1230   -48123.559      246.186    240.01106       4.1031   -8880.4689   -12372.819    -15.77361   -14252.814   -48123.559 
    1240   -48123.561      246.186    240.00789       4.1031    -8870.451    -12365.71  -0.27639366   -14245.367   -48123.561 
    1250   -48123.563      246.186    240.00757       4.1031   -8869.4157   -12364.735   0.78389113   -14244.296   -48123.563 
    1260   -48123.565      246.186    240.01085       4.1031   -8880.1084   -12372.761   -15.111996   -14252.452   -48123.565 
    1270   -48123.567      246.186    240.00779       4.1031   -8870.5128   -12365.965  -0.26043273   -14245.313   -48123.567 
    1280   -48123.569      246.186     240.0075       4.1031   -8869.6062   -12365.132   0.68221956   -14244.369   -48123.569 
    1290   -48123.571      246.186    240.01054       4.1031   -8879.5885   -12372.647   -14.128072    -14251.99   -48123.571 
    1300   -48123.572      246.186    240.00768       4.1031   -8870.6222   -12366.302  -0.24538416   -14245.319   -48123.572 
    1310   -48123.574      246.186     240.0074       4.1031    -8869.818   -12365.572   0.59902433   -14244.481   -48123.574 
    1320   -48123.575      246.186     240.0102       4.1031   -8879.0789   -12372.557   -13.122637   -14251.557   -48123.575 
    1330   -48123.577      246.186    240.00754       4.1031   -8870.7592   -12366.675   -0.2331599   -14245.369   -48123.577 
    1340   -48123.578      246.186    240.00727       4.1031   -8870.0154   -12366.014   0.56618962   -14244.598   -48123.578 
    1350   -48123.579      246.186    240.00986       4.1031   -8878.6166   -12372.516    -12.15889   -14251.174   -48123.579 
    1360    -48123.58      246.186    240.00737       4.1031   -8870.8764   -12367.053  -0.15983711   -14245.416    -48123.58 
    1370   -48123.581      246.186    240.00712       4.1031   -8870.1947   -12366.463   0.58581328   -14244.707   -48123.581 
    1380   -48123.582      246.186    240.00956       4.1031    -8878.332   -12372.636   -11.430722    -14250.93   -48123.582 
    1390   -48123.583      246.186     240.0072       4.1031   -8871.0403   -12367.504  -0.11281495   -14245.504   -48123.583 
    1400   -48123.584      246.186    240.00695       4.1031   -8870.4178   -12366.986   0.58136502   -14244.849   -48123.584 
    1410   -48123.585      246.186    240.00929       4.1031   -8878.2401    -12372.95   -10.941375   -14250.829   -48123.585 
    1420   -48123.586      246.186    240.00701       4.1031   -8871.2043   -12368.018  -0.00573976   -14245.589   -48123.586 
    1430   -48123.607      246.186    240.02763       4.1031    -8944.256   -12425.124   -106.79966   -14300.844   -48123.607 
    1440   -48123.637      246.186    240.00355       4.1031    -8874.203   -12375.822   0.11278891     -14246.9   -48123.637 
    1450   -48123.638      246.186    240.00664       4.1031   -8884.9536   -12383.988   -14.721512   -14256.151   -48123.638 
    1460   -48123.643      246.186    240.00197       4.1031    -8871.419   -12373.548    5.5372783   -14246.246   -48123.643 
    1470   -48123.654      246.186    240.00598       4.1031   -8884.5959   -12384.112   -14.926607   -14254.749   -48123.654 
    1480   -48123.656      246.186    240.00288       4.1031   -8874.7362   -12376.677   -0.6445861   -14246.887   -48123.656 
    1490   -48123.658      246.186     240.0025       4.1031   -8873.7845   -12376.215    1.3208295   -14246.459   -48123.658 
    1500   -48123.661      246.186    240.00553       4.1031   -8883.7478   -12383.573   -13.534188   -14254.136   -48123.661 
    1510   -48123.663      246.186    240.00267       4.1031   -8874.5621   -12376.402  -0.40671495   -14246.878   -48123.663 
    1520   -48123.666      246.186    240.00215       4.1031   -8873.1194   -12375.548    2.2989919   -14246.109   -48123.666 
    1530    -48123.67      246.186    240.00573       4.1031   -8884.6469   -12383.847   -15.108985   -14254.984    -48123.67 
    1540   -48123.674      246.186     240.0026       4.1031   -8874.3124   -12375.513  -0.66151112   -14246.762   -48123.674 
    1550   -48123.678      246.186    240.00201       4.1031   -8872.4092   -12374.145    2.5870247    -14245.67   -48123.678 
    1560   -48123.685      246.186     240.0062       4.1031    -8885.399   -12383.065   -17.556242   -14255.575   -48123.685 
    1570   -48123.692      246.186    240.00251       4.1031   -8872.6247   -12372.201  -0.49424226   -14245.179   -48123.692 
    1580   -48123.715      246.186    240.00186       4.1031   -8868.3859   -12366.821    4.3485134   -14242.685   -48123.715 
    1590   -48123.718      246.186    239.99989       4.1031   -8860.4473   -12358.773    14.389581   -14236.958   -48123.718 
    1600   -48123.758      246.186    240.00761       4.1031   -8884.6794   -12373.342   -25.379271   -14255.317   -48123.758 
    1610   -48123.769      246.186    240.00186       4.1031   -8865.3677   -12357.091   0.88423703   -14239.896   -48123.769 
    1620   -48123.773      246.186    240.00304       4.1031   -8868.3133   -12358.537   -3.3100866   -14243.092   -48123.773 
    1630   -48123.787      246.186    240.00219       4.1031   -8864.1445   -12352.179  -0.31438234    -14239.94   -48123.787 
    1640    -48123.79      246.186    240.00196       4.1031   -8863.4648   -12351.714    1.3612349   -14240.042    -48123.79 
    1650   -48123.792      246.186    240.00464       4.1031   -8871.8597   -12357.383   -11.455103   -14246.741   -48123.792 
    1660   -48123.793      246.186    240.00235       4.1031   -8864.2257   -12351.078  -0.68849239   -14240.911   -48123.793 
    1670   -48123.794      246.186    240.00208       4.1031   -8863.3163   -12350.297   0.91414476   -14240.566   -48123.794 
    1680   -48123.796      246.186    240.00415       4.1031   -8869.7788   -12354.618   -8.9888673    -14245.73   -48123.796 
    1690   -48123.797      246.186    240.00233       4.1031   -8863.7342   -12349.584  -0.48867637    -14241.13   -48123.797 
    1700   -48123.798      246.186    240.00216       4.1031   -8863.1782    -12349.08   0.54748296   -14241.002   -48123.798 
    1710   -48123.798      246.186    240.00383       4.1031   -8868.3991   -12352.558   -7.4505484   -14245.189   -48123.798 
    1720   -48123.799      246.186    240.00245       4.1031   -8863.9116   -12349.054  -0.72364205   -14241.957   -48123.799 
    1730     -48123.8      246.186    240.00342       4.1031   -8866.9249   -12350.849   -5.3174041   -14244.609     -48123.8 
    1740   -48123.801      246.186    240.00211       4.1031   -8862.4517   -12346.755   0.54874883   -14241.149   -48123.801 
    1750   -48123.802      246.186    240.00384       4.1031   -8867.9528    -12350.52   -7.7958351   -14245.543   -48123.802 
    1760   -48123.802      246.186    240.00227       4.1031   -8862.9217   -12346.707  -0.14179046   -14241.916   -48123.802 
    1770   -48123.802      246.186    240.00212       4.1031   -8862.3298   -12345.897    0.3943888   -14241.487   -48123.802 
    1780   -48123.803      246.186    240.00219       4.1031   -8862.5136   -12345.897   0.12491747   -14241.768   -48123.803 
    1790   -48123.806      246.186    240.00256       4.1031   -8862.9421   -12341.942   -1.5876761   -14245.297   -48123.806 
    1800   -48123.811      246.186    240.00171       4.1031    -8860.624   -12338.416   0.93706259   -14244.393   -48123.811 
    1810   -48123.813      246.186    240.00298       4.1031   -8864.4645   -12340.412   -5.5733269   -14247.408   -48123.813 
    1820   -48123.814      246.186    240.00185       4.1031   -8860.5054   -12336.556  -0.18308468   -14244.777   -48123.814 
    1830   -48123.814      246.186     240.0042       4.1031   -8868.0867   -12342.209   -11.400047   -14250.651   -48123.814 
    1840   -48123.814      246.186    240.00219       4.1031   -8861.6716   -12337.371    -1.787487   -14245.856   -48123.814 
    1850   -48123.814      246.186    240.00186       4.1031   -8860.6891   -12336.581  -0.13239615   -14245.354   -48123.814 
    1860   -48123.815      246.186    240.00176       4.1031   -8860.1205   -12335.307 -0.021207409   -14245.033   -48123.815 
    1870   -48123.816      246.186    240.00169       4.1031   -8859.8081   -12333.872  0.061912668   -14245.614   -48123.816 
    1880   -48123.817      246.186    240.00186       4.1031   -8860.3794   -12334.406   -0.4986679   -14246.233   -48123.817 
    1890   -48123.817      246.186    240.00167       4.1031   -8859.8711   -12333.951    0.0315558   -14245.694   -48123.817 
    1900   -48123.817      246.186    240.00175       4.1031   -8859.9974   -12333.692   -0.3461285   -14245.954   -48123.817 
    1910   -48123.818      246.186    240.00204       4.1031   -8860.9489   -12334.246    -1.884078   -14246.717   -48123.818 
    1920   -48123.818      246.186    240.00306       4.1031   -8864.2781   -12336.356   -6.7850199   -14249.693   -48123.818 
    1930   -48123.819      246.186    240.00196       4.1031   -8860.7157   -12333.635   -1.5374681   -14246.974   -48123.819 
    1940    -48123.82      246.186    240.00065       4.1031   -8856.3815   -12328.842     3.898929   -14244.202    -48123.82 
    1950   -48123.821      246.186    240.00162       4.1031   -8859.5914   -12331.304  -0.74224495   -14246.728   -48123.821 
    1960   -48123.821      246.186    240.00157       4.1031   -8859.4315   -12331.173  -0.50017229   -14246.622   -48123.821 
    1970   -48123.822      246.186    240.00311       4.1031   -8864.4299   -12333.921   -8.8064195   -14250.563   -48123.822 
    1980   -48123.823      246.186     240.0013       4.1031   -8858.6487   -12329.711  -0.03490864     -14246.2   -48123.823 
    1990   -48123.823      246.186    240.00118       4.1031   -8858.2466   -12329.359   0.46917315    -14245.85   -48123.823 
    2000   -48123.823      246.186    240.00167       4.1031   -8859.8393   -12330.523   -1.9196592   -14247.075   -48123.823 
    2010   -48123.823      246.186    240.00128       4.1031    -8858.616    -12329.64 -0.030582692   -14246.177   -48123.823 
    2020   -48123.827      246.186    240.00007       4.1031   -8855.5893   -12323.739    1.4517891    -14244.48   -48123.827 
    2030   -48123.827      246.186    240.00149       4.1031   -8860.1761    -12327.05   -5.3735809   -14248.104   -48123.827 
    2040   -48123.828      246.186    240.00046       4.1031   -8856.8056   -12324.483  -0.47328617    -14245.46   -48123.828 
    2050   -48123.828      246.186    240.00038       4.1031   -8856.6094   -12324.575  -0.10959673   -14245.143   -48123.828 
    2060   -48123.828      246.186    239.99979       4.1031   -8854.7071   -12323.219    2.6881994    -14243.59   -48123.828 
    2070   -48123.828      246.186    240.00038       4.1031   -8856.6185   -12324.746 -0.042777947   -14245.066   -48123.828 
    2080   -48123.828      246.186    240.00039       4.1031   -8856.6558   -12324.833 -0.078829717   -14245.055   -48123.828 
    2090   -48123.828      246.186    240.00035       4.1031   -8856.6099   -12324.985 -0.0095976117   -14244.835   -48123.828 
    2100   -48123.828      246.186     240.0004       4.1031   -8856.7513   -12325.087  -0.20663451    -14244.96   -48123.828 
    2110   -48123.828      246.186    240.00036       4.1031   -8856.6158   -12325.013 -0.024374241    -14244.81   -48123.828 
    2120   -48123.828      246.186    240.00062       4.1031   -8857.5236    -12325.64   -1.3569676   -14245.574   -48123.828 
    2130   -48123.829      246.186    240.00027       4.1031   -8856.3691   -12324.912   0.35534423   -14244.551   -48123.829 
    2140   -48123.829      246.186    240.00057       4.1031   -8857.3526   -12325.632   -1.1492759   -14245.277   -48123.829 
    2150   -48123.829      246.186    240.00024       4.1031   -8856.4158   -12325.155   0.28779705    -14244.38   -48123.829 
    2160    -48123.83      246.186    240.00024       4.1031   -8856.4201   -12325.068  0.067420982    -14244.26    -48123.83 
    2170    -48123.83      246.186    240.00025       4.1031   -8856.4371    -12325.08  0.033313161   -14244.265    -48123.83 
    2180    -48123.83      246.186    240.00033       4.1031    -8856.714    -12325.31  -0.35971457   -14244.473    -48123.83 
    2190    -48123.83      246.186    240.00047       4.1031   -8857.1671   -12325.657    -1.056809   -14244.788    -48123.83 
    2200    -48123.83      246.186    240.00069       4.1031   -8857.8815    -12325.97   -2.2522767   -14245.422    -48123.83 
    2210    -48123.83      246.186    240.00023       4.1031   -8856.4079   -12324.939 4.3101542e-05   -14244.285    -48123.83 
    2220    -48123.83      246.186    239.99845       4.1031    -8850.647   -12320.449    8.4436141   -14239.936    -48123.83 
    2230    -48123.83      246.186    240.00017       4.1031   -8856.1898   -12324.486  0.093990402   -14244.177    -48123.83 
    2240    -48123.83      246.186    240.00017       4.1031   -8856.1921    -12324.48  0.082003986   -14244.179    -48123.83 
    2250    -48123.83      246.186    240.00018       4.1031   -8856.1969   -12324.475  0.066566287   -14244.182    -48123.83 
    2260    -48123.83      246.186    240.00018       4.1031   -8856.2088   -12324.476  0.040850243   -14244.192    -48123.83 
    2270    -48123.83      246.186    240.00027       4.1031   -8856.5327   -12324.843  -0.32395984   -14244.431    -48123.83 
    2280    -48123.83      246.186     240.0002       4.1031   -8856.2843   -12324.637 -0.0022354153   -14244.214    -48123.83 
    2283    -48123.83      246.186     240.0002       4.1031   -8856.3174   -12324.684 -0.011233064   -14244.257    -48123.83 
Loop time of 26.2447 on 8 procs for 2283 steps with 14363 atoms

100.0% CPU use with 8 MPI tasks x no OpenMP threads

Minimization stats:
  Stopping criterion = energy tolerance
  Energy initial, next-to-last, final = 
     -48068.5528505877  -48123.8304378564  -48123.8304378564
  Force two-norm initial, final = 4283.113 0.0056420566
  Force max component initial, final = 4283.113 0.0020451755
  Final line search alpha, max atom move = 0.11201888 0.00022909827
  Iterations, force evaluations = 2283 4536

MPI task timing breakdown:
Section |  min time  |  avg time  |  max time  |%varavg| %total
---------------------------------------------------------------
Pair    | 22.847     | 23.296     | 24.456     |  11.8 | 88.76
Neigh   | 0.035581   | 0.036216   | 0.036978   |   0.2 |  0.14
Comm    | 0.43454    | 1.498      | 1.975      |  50.3 |  5.71
Output  | 0.023438   | 0.024169   | 0.028195   |   1.0 |  0.09
Modify  | 0          | 0          | 0          |   0.0 |  0.00
Other   |            | 1.391      |            |       |  5.30

Nlocal:        1795.38 ave        1805 max        1782 min
Histogram: 1 0 0 2 0 1 0 2 1 1
Nghost:          12467 ave       12540 max       12429 min
Histogram: 2 2 1 0 0 2 0 0 0 1
Neighs:         124941 ave      125372 max      123367 min
Histogram: 1 0 0 0 0 0 0 1 2 4
FullNghs:       249378 ave      250613 max      246646 min
Histogram: 1 0 0 0 1 1 0 0 3 2

Total # of neighbors = 1995028
Ave neighs/atom = 138.90051
Neighbor list builds = 8
Dangerous builds = 0
GB energy is 1077.36627353933 mJ/m^2
WARNING: Using 'neigh_modify every 1 delay 0 check yes' setting during minimization (../min.cpp:187)
Setting up cg style minimization ...
  Unit style    : metal
  Current step  : 0
WARNING: Energy due to 3 extra global DOFs will be included in minimizer energies
Per MPI rank memory allocation (min/avg/max) = 8.505 | 8.506 | 8.507 Mbytes
Step PotEng Lx Ly Lz Press Pxx Pyy Pzz c_eatoms 
       0    -48123.83      246.186     240.0002       4.1031   -8856.3174   -12324.684 -0.011233064   -14244.257    -48123.83 
      10    -48123.83      246.186    240.00013       4.1031   -8856.0874   -12324.491   0.29211954   -14244.063    -48123.83 
      20    -48123.83      246.186    240.00029       4.1031   -8856.5975   -12324.866  -0.47238826   -14244.454    -48123.83 
      30    -48123.83      246.186     240.0002       4.1031   -8856.3061   -12324.663 -0.0091144438   -14244.246    -48123.83 
      40    -48123.83      246.186    240.00019       4.1031   -8856.2584   -12324.607  0.027020978   -14244.196    -48123.83 
      50   -48123.831      246.186    239.99994       4.1031   -8855.4528   -12323.357   0.55299819   -14243.554   -48123.831 
      60   -48123.831      246.186    239.99995       4.1031   -8855.4805   -12323.288   0.42061814   -14243.574   -48123.831 
      70   -48123.831      246.186    239.99999       4.1031   -8855.5832   -12323.242    0.1504102   -14243.658   -48123.831 
      80   -48123.831      246.186    240.00002       4.1031   -8855.7174    -12323.22 -0.093085493   -14243.839   -48123.831 
      90   -48123.831      246.186    239.99998       4.1031   -8855.6382    -12323.27   0.22475783   -14243.869   -48123.831 
     100   -48123.831      246.186    240.00025       4.1031   -8856.5225   -12323.947   -1.0791809   -14244.541   -48123.831 
     110   -48123.831      246.186    240.00003       4.1031   -8855.7794   -12323.377 -0.026884085   -14243.935   -48123.831 
     120   -48123.831      246.186    239.99999       4.1031   -8855.6934   -12323.358    0.1733347   -14243.896   -48123.831 
     130   -48123.831      246.186    240.00015       4.1031   -8856.2029   -12323.747  -0.58344452   -14244.278   -48123.831 
     140   -48123.831      246.186    240.00005       4.1031   -8855.8884   -12323.544 -0.073714763   -14244.048   -48123.831 
     150   -48123.832      246.186    240.00002       4.1031   -8855.8189   -12323.544 0.0034260446   -14243.916   -48123.832 
     160   -48123.832      246.186    239.99961       4.1031   -8854.4597   -12322.448     1.909138    -14242.84   -48123.832 
     170   -48123.832      246.186    240.00007       4.1031   -8855.9609   -12323.598  -0.26228657   -14244.022   -48123.832 
     180   -48123.832      246.186     240.0003       4.1031   -8856.6966    -12324.14   -1.4294014    -14244.52   -48123.832 
     190   -48123.832      246.186          240       4.1031   -8855.7538   -12323.443 0.0067894107   -14243.825   -48123.832 
     200   -48123.832      246.186    239.99991       4.1031   -8855.4609    -12323.15   0.38684549    -14243.62   -48123.832 
     210   -48123.832      246.186    239.99999       4.1031   -8855.7202   -12323.323 -0.015447353   -14243.822   -48123.832 
     220   -48123.832      246.186    240.00004       4.1031   -8855.8799     -12323.5  -0.20175679   -14243.938   -48123.832 
     230   -48123.832      246.186          240       4.1031   -8855.7717   -12323.426 -0.032585661   -14243.857   -48123.832 
     240   -48123.832      246.186          240       4.1031   -8855.7741   -12323.433 -0.030192011   -14243.859   -48123.832 
     250   -48123.832      246.186    240.00001       4.1031   -8855.7845   -12323.449 -0.038116255   -14243.866   -48123.832 
     260   -48123.832      246.186    240.00001       4.1031   -8855.7989    -12323.47 -0.051228569   -14243.876   -48123.832 
     270   -48123.832      246.186    240.00001       4.1031   -8855.8128   -12323.493 -0.063268593   -14243.882   -48123.832 
     280   -48123.832      246.186    240.00001       4.1031   -8855.8173   -12323.513 -0.061260649   -14243.878   -48123.832 
     290   -48123.832      246.186          240       4.1031   -8855.8036   -12323.526 -0.032464726   -14243.852   -48123.832 
     300   -48123.832      246.186    239.99999       4.1031   -8855.7983   -12323.568 -0.050922548   -14243.776   -48123.832 
     310   -48123.832      246.186    239.99997       4.1031   -8855.7643   -12323.544 -0.010667035   -14243.738   -48123.832 
     320   -48123.832      246.186    239.99997       4.1031   -8855.7486   -12323.528 -0.0098712603   -14243.708   -48123.832 
     330   -48123.832      246.186    239.99996       4.1031   -8855.7295   -12323.501 -0.010315554   -14243.677   -48123.832 
     340   -48123.832      246.186    239.99996       4.1031   -8855.7138    -12323.45 -0.040352347   -14243.651   -48123.832 
     350   -48123.832      246.186    239.99998       4.1031   -8855.7529   -12323.457  -0.12190498    -14243.68   -48123.832 
     360   -48123.832      246.186    240.00012       4.1031   -8856.1967   -12323.767  -0.80071172   -14244.023   -48123.832 
     370   -48123.832      246.186    239.99996       4.1031   -8855.7058   -12323.435   0.04470678   -14243.727   -48123.832 
     380   -48123.832      246.186    239.99996       4.1031   -8855.7081   -12323.397 0.0098089757   -14243.737   -48123.832 
     390   -48123.832      246.186    239.99994       4.1031   -8855.6268   -12323.296    0.0770931   -14243.662   -48123.832 
     400   -48123.832      246.186    240.00009       4.1031   -8856.0859   -12323.627  -0.59567223   -14244.035   -48123.832 
     410   -48123.832      246.186    240.00018       4.1031   -8856.3163   -12323.694  -0.99320015   -14244.262   -48123.832 
     420   -48123.832      246.186    239.99996       4.1031   -8855.6468   -12323.227 0.0083652816   -14243.722   -48123.832 
     430   -48123.832      246.186    239.99994       4.1031   -8855.6543   -12323.286 -0.0053723692   -14243.672   -48123.832 
     440   -48123.832      246.186    239.99995       4.1031   -8855.6507   -12323.229  0.002572398   -14243.726   -48123.832 
     450   -48123.832      246.186    239.99993       4.1031   -8855.5674    -12323.06 0.0033934126   -14243.646   -48123.832 
     460   -48123.832      246.186    239.99993       4.1031   -8855.5857   -12323.097 0.0065442862   -14243.666   -48123.832 
     470   -48123.832      246.186    239.99991       4.1031   -8855.5311   -12323.062  0.095355885   -14243.627   -48123.832 
     480   -48123.832      246.186     239.9999       4.1031    -8855.492   -12323.038    0.1600181   -14243.599   -48123.832 
     490   -48123.832      246.186    239.99989       4.1031   -8855.4792   -12323.034   0.18627349    -14243.59   -48123.832 
     500   -48123.832      246.186    239.99989       4.1031   -8855.4803   -12323.042   0.19090596    -14243.59   -48123.832 
     510   -48123.832      246.186    239.99989       4.1031   -8855.4743   -12323.044   0.20469098   -14243.583   -48123.832 
     520   -48123.832      246.186    239.99988       4.1031   -8855.4347   -12323.022    0.2660178   -14243.548   -48123.832 
     530   -48123.832      246.186    239.99983       4.1031   -8855.2896   -12322.921   0.48010163   -14243.428   -48123.832 
     540   -48123.832      246.186    239.99964       4.1031   -8854.6813   -12322.475    1.3648734   -14242.933   -48123.832 
     550   -48123.832      246.186    239.99976       4.1031   -8855.0714   -12322.756   0.73788001   -14243.196   -48123.832 
     560   -48123.832      246.186    239.99977       4.1031   -8855.0935    -12322.76    0.6693115   -14243.189   -48123.832 
     570   -48123.832      246.186    239.99973       4.1031   -8854.9593   -12322.648   0.83770084   -14243.067   -48123.832 
     580   -48123.832      246.186    239.99974       4.1031   -8855.0067   -12322.675   0.74513915    -14243.09   -48123.832 
     590   -48123.832      246.186    239.99981       4.1031    -8855.234   -12322.844   0.40459095   -14243.262   -48123.832 
     600   -48123.832      246.186    239.99983       4.1031   -8855.3109   -12322.905   0.29536054   -14243.324   -48123.832 
     610   -48123.832      246.186    239.99984       4.1031   -8855.3483   -12322.937   0.24848964   -14243.356   -48123.832 
     620   -48123.832      246.186    239.99985       4.1031   -8855.3676   -12322.957   0.23043137   -14243.376   -48123.832 
     630   -48123.832      246.186    239.99984       4.1031    -8855.353   -12322.952   0.26449415   -14243.371   -48123.832 
     640   -48123.832      246.186    239.99982       4.1031   -8855.2839   -12322.909   0.38298549   -14243.326   -48123.832 
     650   -48123.832      246.186    239.99972       4.1031   -8854.9789   -12322.695   0.86504742   -14243.107   -48123.832 
     660   -48123.832      246.186    239.99969       4.1031   -8854.9063   -12322.656    1.0068493    -14243.07   -48123.832 
     670   -48123.832      246.186     239.9995       4.1031   -8854.3134   -12322.231    1.9447253   -14242.654   -48123.832 
     680   -48123.832      246.186    239.99969       4.1031   -8854.9274   -12322.678    1.0416417   -14243.146   -48123.832 
     690   -48123.832      246.186    239.99975       4.1031   -8855.1667   -12322.835   0.67586744   -14243.341   -48123.832 
     700   -48123.832      246.186     239.9998       4.1031   -8855.3308   -12322.922   0.40208694   -14243.472   -48123.832 
     710   -48123.832      246.186    239.99984       4.1031   -8855.4727   -12322.923  0.074235476   -14243.569   -48123.832 
     720   -48123.833      246.186    239.99982       4.1031   -8855.3472   -12322.643  0.011668084   -14243.411   -48123.833 
     730   -48123.833      246.186    239.99982       4.1031   -8855.3122   -12322.582 -0.011192802   -14243.344   -48123.833 
     740   -48123.833      246.186          240       4.1031   -8855.9062   -12322.985  -0.90197588   -14243.832   -48123.833 
     750   -48123.833      246.186    239.99981       4.1031   -8855.2931   -12322.525  0.017417725   -14243.372   -48123.833 
     760   -48123.833      246.186    239.99981       4.1031   -8855.2904   -12322.522    0.0237969   -14243.373   -48123.833 
     770   -48123.833      246.186    239.99981       4.1031   -8855.2998   -12322.526  0.010266627   -14243.383   -48123.833 
     780   -48123.833      246.186    239.99969       4.1031   -8854.9062   -12322.202   0.51798608   -14243.035   -48123.833 
     790   -48123.833      246.186    239.99975       4.1031   -8855.0891   -12322.341   0.24456393   -14243.171   -48123.833 
     800   -48123.833      246.186     239.9998       4.1031   -8855.2397   -12322.459  0.027452373   -14243.288   -48123.833 
     810   -48123.833      246.186    239.99988       4.1031   -8855.5351   -12322.699  -0.36626663    -14243.54   -48123.833 
     820   -48123.833      246.186    239.99994       4.1031   -8855.7212   -12322.832  -0.64646278   -14243.685   -48123.833 
     830   -48123.833      246.186    239.99981       4.1031    -8855.303    -12322.49 -0.039890366   -14243.379   -48123.833 
     840   -48123.833      246.186    239.99966       4.1031   -8854.8094    -12322.08   0.61756399   -14242.965   -48123.833 
     850   -48123.833      246.186    239.99987       4.1031   -8855.4961   -12322.553  -0.43230938   -14243.502   -48123.833 
     860   -48123.833      246.186    239.99979       4.1031   -8855.2474   -12322.366 -0.073851124   -14243.302   -48123.833 
     870   -48123.833      246.186    240.00065       4.1031   -8858.0321   -12324.356   -4.2404226     -14245.5   -48123.833 
     880   -48123.833      246.186    239.99982       4.1031   -8855.3683   -12322.381  -0.33274408   -14243.391   -48123.833 
     890   -48123.833      246.186    239.99974       4.1031   -8855.1124   -12322.088 -0.080186458   -14243.169   -48123.833 
     900   -48123.833      246.186    239.99973       4.1031   -8855.1082   -12322.052  -0.10531355   -14243.167   -48123.833 
     910   -48123.833      246.186    239.99974       4.1031    -8855.121   -12322.038  -0.14676992   -14243.178   -48123.833 
     920   -48123.833      246.186    239.99974       4.1031   -8855.1372   -12322.023  -0.19810225    -14243.19   -48123.833 
     930   -48123.833      246.186    239.99974       4.1031   -8855.1544   -12322.004   -0.2561716   -14243.203   -48123.833 
     940   -48123.833      246.186    239.99975       4.1031   -8855.1693   -12321.978   -0.3166717   -14243.213   -48123.833 
     950   -48123.833      246.186    239.99975       4.1031   -8855.1815   -12321.944  -0.37964485   -14243.221   -48123.833 
     960   -48123.833      246.186    239.99976       4.1031   -8855.1955   -12321.905  -0.45199427   -14243.229   -48123.833 
     970   -48123.833      246.186    239.99976       4.1031   -8855.2257   -12321.871  -0.55632158   -14243.249   -48123.833 
     980   -48123.833      246.186    239.99979       4.1031   -8855.3209   -12321.875  -0.76946047   -14243.318   -48123.833 
     990   -48123.833      246.186    239.99997       4.1031   -8855.8749   -12322.186   -1.7033047   -14243.736   -48123.833 
    1000   -48123.833      246.186    240.00014       4.1031   -8856.4358    -12322.43   -2.7305836   -14244.147   -48123.833 
    1010   -48123.834      246.186    239.99959       4.1031   -8854.7509   -12321.451 0.0021678205   -14242.804   -48123.834 
    1020   -48123.834      246.186     239.9996       4.1031   -8854.7623   -12321.436 -0.010526195    -14242.84   -48123.834 
    1030   -48123.834      246.186     239.9996       4.1031   -8854.7513   -12321.387 -0.018346272   -14242.849   -48123.834 
    1040   -48123.834      246.186    239.99959       4.1031   -8854.7241   -12321.333 -0.006810187   -14242.833   -48123.834 
    1050   -48123.834      246.186    239.99959       4.1031   -8854.7112   -12321.281 -0.015739891   -14242.837   -48123.834 
    1060   -48123.834      246.186    239.99957       4.1031    -8854.641   -12321.221  0.097537038   -14242.799   -48123.834 
    1070   -48123.834      246.186    239.99959       4.1031   -8854.7158   -12321.343 0.0021925983   -14242.807   -48123.834 
    1080   -48123.834      246.186    239.99963       4.1031    -8854.862   -12321.441  -0.21282538   -14242.932   -48123.834 
    1090   -48123.834      246.186    239.99986       4.1031   -8855.5993   -12321.988   -1.3117318   -14243.498   -48123.834 
    1094   -48123.834      246.186    239.99958       4.1031   -8854.7051   -12321.326 0.0067275507   -14242.796   -48123.834 
Loop time of 12.3402 on 8 procs for 1094 steps with 14363 atoms

100.0% CPU use with 8 MPI tasks x no OpenMP threads

Minimization stats:
  Stopping criterion = energy tolerance
  Energy initial, next-to-last, final = 
     -48123.8304378564  -48123.8336037682  -48123.8336037683
  Force two-norm initial, final = 0.005628673 0.002764169
  Force max component initial, final = 0.0020451755 0.001017967
  Final line search alpha, max atom move = 0.11555775 0.00011763397
  Iterations, force evaluations = 1094 2184

MPI task timing breakdown:
Section |  min time  |  avg time  |  max time  |%varavg| %total
---------------------------------------------------------------
Pair    | 10.826     | 11.008     | 11.485     |   7.0 | 89.20
Neigh   | 0          | 0          | 0          |   0.0 |  0.00
Comm    | 0.20562    | 0.63885    | 0.85555    |  31.5 |  5.18
Output  | 0.01085    | 0.011226   | 0.013212   |   0.7 |  0.09
Modify  | 0          | 0          | 0          |   0.0 |  0.00
Other   |            | 0.6826     |            |       |  5.53

Nlocal:        1795.38 ave        1806 max        1781 min
Histogram: 1 0 1 1 0 1 0 2 0 2
Nghost:        12468.2 ave       12540 max       12433 min
Histogram: 3 1 1 0 0 1 1 0 0 1
Neighs:         124961 ave      125712 max      123366 min
Histogram: 1 0 0 0 1 0 1 2 1 2
FullNghs:       249922 ave      251418 max      247264 min
Histogram: 1 0 0 0 1 1 1 1 2 1

Total # of neighbors = 1999372
Ave neighs/atom = 139.20295
Neighbor list builds = 0
Dangerous builds = 0
Changing box ...
545 atoms in group frozen
13818 atoms in group tstat
Setting up Verlet run ...
  Unit style    : metal
  Current step  : 0
  Time step     : 0.001
Per MPI rank memory allocation (min/avg/max) = 7.311 | 7.312 | 7.313 Mbytes
Step Time Atoms Temp PotEng KinEng TotEng Density 
       0            0    14363         1600   -48016.076    2970.2947   -45045.781    2.6576642 
    5000            5    14363    830.35997   -46533.151    1541.5087   -44991.643    2.5674188 
   10000           10    14363    826.83695   -46479.805    1534.9684   -44944.837    2.5469813 
   15000           15    14363    832.31795     -46624.3    1545.1435   -45079.157    2.6444396 
   20000           20    14363    834.92804   -46575.569     1549.989    -45025.58    2.5856677 
   25000           25    14363    837.44025    -46419.33    1554.6527   -44864.677    2.5421726 
   30000           30    14363     829.2614   -46624.819    1539.4692    -45085.35    2.6233384 
   35000           35    14363    824.44515   -46610.767    1530.5282   -45080.239    2.6015266 
   40000           40    14363    819.63201   -46409.912    1521.5929   -44888.319    2.5386994 
   45000           45    14363     823.1311   -46614.986    1528.0887   -45086.897    2.6056676 
   50000           50    14363    826.14345   -46632.523     1533.681   -45098.842    2.6147803 
   55000           55    14363    826.18534   -46414.448    1533.7587   -44880.689    2.5362998 
   60000           60    14363    831.32318   -46582.385    1543.2968   -45039.088    2.5874484 
   65000           65    14363    831.88477   -46622.226    1544.3393   -45077.887    2.6253002 
   70000           70    14363    832.30541   -46456.188    1545.1202   -44911.067    2.5453199 
   75000           75    14363    833.55997   -46545.513    1547.4492   -44998.064    2.5748522 
   80000           80    14363    825.19173   -46611.618    1531.9142   -45079.704    2.6311378 
   85000           85    14363      830.619   -46483.884    1541.9895   -44941.894    2.5553515 
   90000           90    14363    838.14515   -46523.488    1555.9613   -44967.527    2.5608407 
   95000           95    14363    828.63883   -46622.321    1538.3135   -45084.008    2.6289733 
  100000          100    14363    823.24953   -46545.777    1528.3086   -45017.469    2.5692335 
  105000          105    14363    829.40854   -46470.147    1539.7424   -44930.405    2.5460254 
  110000          110    14363    828.94125   -46637.609    1538.8749   -45098.734    2.6280957 
  115000          115    14363    837.95091   -46572.706    1555.6007   -45017.106    2.5843637 
  120000          120    14363    825.22775   -46445.667     1531.981   -44913.686    2.5439332 
  125000          125    14363    826.43754    -46617.21    1534.2269   -45082.983    2.6177088 
  130000          130    14363    825.99968   -46603.716    1533.4141   -45070.302    2.5952305 
  135000          135    14363    831.59348   -46443.461    1543.7986   -44899.663     2.544165 
  140000          140    14363    832.28439   -46620.604    1545.0812   -45075.523    2.6004936 
  145000          145    14363    834.12909   -46601.758    1548.5058   -45053.252    2.6090979 
  150000          150    14363    832.46043    -46434.99     1545.408   -44889.582     2.543832 
  155000          155    14363    834.47464    -46609.65    1549.1473   -45060.502    2.5886539 
  160000          160    14363    832.15097   -46616.696    1544.8335   -45071.863    2.6136746 
  165000          165    14363    826.39513   -46462.758    1534.1482    -44928.61     2.548956 
  170000          170    14363    825.86248   -46566.776    1533.1594   -45033.616    2.5808635 
  175000          175    14363    820.03912   -46594.234    1522.3487   -45071.886     2.615257 
  180000          180    14363     818.5394   -46504.586    1519.5645   -44985.021    2.5650237 
  185000          185    14363    826.87463   -46531.475    1535.0383   -44996.437    2.5687147 
  190000          190    14363     823.6671   -46620.756    1529.0838   -45091.672    2.6192187 
  195000          195    14363    830.92411   -46529.298    1542.5559   -44986.742    2.5650602 
  200000          200    14363    828.09666   -46508.127     1537.307    -44970.82    2.5589006 
  205000          205    14363    819.02248   -46617.341    1520.4614    -45096.88    2.6185085 
  210000          210    14363    833.84357   -46563.933    1547.9757   -45015.957    2.5712528 
  215000          215    14363    837.08228   -46487.242    1553.9882   -44933.254    2.5520636 
  220000          220    14363    832.38037   -46602.593    1545.2594   -45057.334    2.6115664 
  225000          225    14363    824.76594   -46572.987    1531.1237   -45041.864     2.585886 
  230000          230    14363    830.70289   -46474.615    1542.1453   -44932.469    2.5494071 
  235000          235    14363     823.1834   -46609.717    1528.1858   -45081.531    2.6048305 
  240000          240    14363    819.11466   -46589.554    1520.6325   -45068.921     2.590666 
  245000          245    14363    823.06769   -46475.755     1527.971   -44947.784    2.5460381 
  250000          250    14363     836.2191   -46588.396    1552.3857    -45036.01    2.5916606 
  255000          255    14363    829.35306   -46609.694    1539.6394   -45070.055     2.597265 
  260000          260    14363    832.37875   -46485.163    1545.2564   -44939.907    2.5548417 
  265000          265    14363    824.75213   -46579.246    1531.0981   -45048.148     2.588351 
  270000          270    14363    829.54135   -46622.047    1539.9889   -45082.058    2.6135318 
  275000          275    14363    837.13864   -46494.204    1554.0928   -44940.111    2.5598928 
  280000          280    14363     835.2105   -46566.092    1550.5133   -45015.578    2.5763275 
  285000          285    14363    823.97453   -46593.314    1529.6545    -45063.66    2.6105964 
  290000          290    14363    839.77491   -46531.497    1558.9869    -44972.51    2.5604118 
  295000          295    14363    833.77565   -46524.857    1547.8496   -44977.008    2.5728825 
  300000          300    14363    835.90424   -46606.688    1551.8012   -45054.887    2.6185309 
  305000          305    14363    821.88022   -46547.695    1525.7665   -45021.928    2.5684504 
  310000          310    14363    831.96019   -46531.532    1544.4793   -44987.053    2.5632751 
  315000          315    14363    828.91389    -46607.29    1538.8241   -45068.466    2.6094629 
  320000          320    14363    820.84977   -46551.729    1523.8536   -45027.875    2.5803102 
  325000          325    14363    823.96013   -46514.574    1529.6278   -44984.946    2.5580114 
  330000          330    14363    821.28852   -46600.139    1524.6681   -45075.471    2.6086413 
  335000          335    14363    828.86193   -46604.691    1538.7276   -45065.963    2.5934348 
  340000          340    14363    819.82641   -46484.649    1521.9538   -44962.695    2.5553813 
  345000          345    14363    845.17549   -46595.924    1569.0127   -45026.912    2.6045107 
  350000          350    14363    834.02135   -46597.732    1548.3058   -45049.427    2.6007212 
  355000          355    14363    829.01604    -46508.12    1539.0137   -44969.106    2.5607384 
  360000          360    14363    830.64896   -46590.902    1542.0451   -45048.857    2.5960708 
  365000          365    14363    822.38163   -46618.301    1526.6974   -45091.603     2.603037 
  370000          370    14363     829.0859   -46530.625    1539.1434   -44991.481    2.5653419 
  375000          375    14363    827.18727   -46583.709    1535.6187    -45048.09    2.5813732 
  380000          380    14363    837.84356   -46607.173    1555.4014   -45051.772    2.6041328 
  385000          385    14363    823.05551   -46531.716    1527.9484   -45003.767    2.5644298 
  390000          390    14363    834.72731   -46571.071    1549.6163   -45021.454    2.5766938 
  395000          395    14363    829.76396   -46612.376    1540.4022   -45071.973    2.6072708 
  400000          400    14363    823.58336   -46522.824    1528.9283   -44993.896    2.5721695 
  405000          405    14363    828.39846   -46554.631    1537.8672   -45016.764    2.5702676 
  410000          410    14363    829.52459   -46621.127    1539.9578   -45081.169    2.6074137 
  415000          415    14363    832.82332   -46554.433    1546.0817   -45008.351    2.5717001 
  420000          420    14363    831.77085   -46541.578    1544.1279    -44997.45    2.5693702 
  425000          425    14363    830.27981   -46594.391    1541.3598   -45053.031    2.6076182 
  430000          430    14363    836.88693    -46580.37    1553.6255   -45026.744    2.5797538 
  435000          435    14363    831.27273   -46519.847    1543.2031   -44976.644    2.5629727 
  440000          440    14363    824.19104   -46607.748    1530.0564   -45077.691    2.6046336 
  445000          445    14363    840.19474   -46579.174    1559.7663   -45019.407    2.5822399 
  450000          450    14363    838.05905   -46513.533    1555.8015   -44957.731    2.5624182 
  455000          455    14363    827.74614   -46606.045    1536.6562   -45069.388    2.5989955 
  460000          460    14363    829.74436   -46588.469    1540.3658   -45048.103    2.5916923 
  465000          465    14363    826.25294   -46510.726    1533.8842   -44976.842    2.5643056 
  470000          470    14363    835.56037    -46580.66    1551.1628   -45029.497    2.5921238 
  475000          475    14363    835.38861   -46596.494     1550.844    -45045.65    2.6017274 
  480000          480    14363    830.72903   -46511.997    1542.1938   -44969.803    2.5694391 
  485000          485    14363    844.41031   -46594.911    1567.5922   -45027.319    2.5889801 
  490000          490    14363    835.45628   -46613.811    1550.9696   -45062.841    2.6071495 
  495000          495    14363    831.68576   -46528.844    1543.9699   -44984.874    2.5702234 
  500000          500    14363    815.62948   -46562.987    1514.1625   -45048.825    2.5883741 
  505000          505    14363    836.21981   -46593.184    1552.3871   -45040.797    2.6068992 
  510000          510    14363    834.01919   -46541.112    1548.3018   -44992.811    2.5743121 
  515000          515    14363    840.73178   -46570.927    1560.7632   -45010.164    2.5804958 
  520000          520    14363    827.18616   -46589.745    1535.6167   -45054.128    2.6090389 
  525000          525    14363    839.30418   -46566.957     1558.113   -45008.844    2.5794641 
  530000          530    14363     837.3796   -46548.989    1554.5401   -44994.449    2.5773206 
  535000          535    14363    830.27558   -46607.196     1541.352   -45065.844    2.6043559 
  540000          540    14363    832.22795   -46563.658    1544.9764   -45018.682    2.5840819 
  545000          545    14363    830.20781    -46574.26    1541.2262   -45033.034    2.5760662 
  550000          550    14363    830.78148   -46608.204    1542.2911   -45065.912    2.6028434 
  555000          555    14363    828.98348     -46567.7    1538.9533   -45028.747    2.5871435 
  560000          560    14363    824.50486   -46526.584     1530.639   -44995.944    2.5729838 
  565000          565    14363    822.01634   -46603.959    1526.0193    -45077.94    2.6008537 
  570000          570    14363    828.04597   -46593.144    1537.2129   -45055.931    2.5944817 
  575000          575    14363     832.3629   -46534.849     1545.227   -44989.623     2.573036 
  580000          580    14363    843.73104   -46596.125    1566.3312   -45029.794    2.5952338 
  585000          585    14363    830.94555   -46582.441    1542.5957   -45039.845    2.5929939 
  590000          590    14363     829.4392   -46553.825    1539.7993   -45014.025    2.5727373 
  595000          595    14363    839.81783   -46587.253    1559.0665   -45028.187    2.5922268 
  600000          600    14363    830.67065   -46594.341    1542.0854   -45052.256     2.596156 
  605000          605    14363    831.27974   -46549.585    1543.2161   -45006.369    2.5705974 
  610000          610    14363    827.39007   -46589.545    1535.9952   -45053.549    2.5867687 
  615000          615    14363    827.73453   -46609.984    1536.6347    -45073.35    2.5997472 
  620000          620    14363    830.75241   -46552.881    1542.2372   -45010.644    2.5763084 
  625000          625    14363    832.79959   -46578.345    1546.0376   -45032.308     2.581614 
  630000          630    14363    827.94083   -46585.343    1537.0177   -45048.325    2.6012018 
  635000          635    14363    829.06949   -46550.302     1539.113   -45011.189    2.5806994 
  640000          640    14363    828.90542   -46574.175    1538.8084   -45035.367    2.5788269 
  645000          645    14363    834.38314   -46605.653    1548.9774   -45056.675    2.6062175 
  650000          650    14363    822.20258    -46567.12     1526.365   -45040.755    2.5814259 
  655000          655    14363     822.6726   -46573.623    1527.2376   -45046.386    2.5709114 
  660000          660    14363    833.99239   -46604.058     1548.252   -45055.806    2.5970355 
  665000          665    14363     823.8734   -46589.361    1529.4668   -45059.894    2.5791745 
  670000          670    14363    829.02459   -46553.073    1539.0296   -45014.043    2.5771351 
  675000          675    14363    835.72796   -46587.877     1551.474   -45036.403    2.5983205 
  680000          680    14363    836.61026     -46584.1    1553.1119   -45030.988    2.5826339 
  685000          685    14363    822.40695   -46544.325    1526.7444   -45017.581    2.5782028 
  690000          690    14363    826.71494   -46591.344    1534.7419   -45056.603    2.5928836 
  695000          695    14363    832.68666   -46562.887     1545.828   -45017.059     2.589401 
  700000          700    14363    826.80148   -46561.668    1534.9026   -45026.766    2.5756087 
  705000          705    14363    826.83985   -46584.841    1534.9738   -45049.867    2.5916052 
  710000          710    14363    820.37061   -46598.363    1522.9641   -45075.399    2.5916499 
  715000          715    14363    841.21861   -46542.553     1561.667   -44980.886    2.5739459 
  720000          720    14363    823.43692   -46585.502    1528.6565   -45056.846    2.5891718 
  725000          725    14363    829.21446   -46594.065    1539.3821   -45054.682    2.5941686 
  730000          730    14363    836.58964   -46547.584    1553.0736    -44994.51    2.5749768 
  735000          735    14363    832.60119   -46575.168    1545.6693   -45029.499    2.5877999 
  740000          740    14363    834.07603    -46587.57    1548.4073   -45039.163    2.5972097 
  745000          745    14363    837.41163   -46566.892    1554.5996   -45012.292    2.5810988 
  750000          750    14363    832.75457   -46584.429    1545.9541   -45038.475    2.5759199 
  755000          755    14363    827.53378   -46600.183     1536.262   -45063.921    2.5976536 
  760000          760    14363    830.11921   -46560.923    1541.0617   -45019.861    2.5796967 
  765000          765    14363    829.89067   -46575.062    1540.6374   -45034.425    2.5837395 
  770000          770    14363    825.93814   -46600.333    1533.2998   -45067.033    2.5989014 
  775000          775    14363    826.17015   -46558.514    1533.7305   -45024.783    2.5828696 
  780000          780    14363    838.73401   -46574.487    1557.0545   -45017.432    2.5796971 
  785000          785    14363     836.5998    -46599.76    1553.0925   -45046.667    2.5974372 
  790000          790    14363    827.44616   -46589.702    1536.0994   -45053.603    2.5808346 
  795000          795    14363    832.95375   -46568.976    1546.3238   -45022.652    2.5770087 
  800000          800    14363    834.88488   -46622.768    1549.9088   -45072.859    2.5941942 
  805000          805    14363    843.42045   -46581.076    1565.7546   -45015.322    2.5860948 
  810000          810    14363    832.07588   -46555.874    1544.6941    -45011.18    2.5765327 
  815000          815    14363    835.34197   -46583.816    1550.7574   -45033.059     2.593197 
  820000          820    14363    820.35494   -46592.199     1522.935   -45069.264     2.590551 
  825000          825    14363    829.91741   -46581.245    1540.6871   -45040.558    2.5739438 
  830000          830    14363    842.12781   -46580.999    1563.3549   -45017.644     2.592798 
  835000          835    14363    833.02229   -46597.054    1546.4511   -45050.603    2.5924507 
  840000          840    14363    824.67963   -46567.724    1530.9635    -45036.76    2.5760032 
  845000          845    14363    833.67022   -46596.454    1547.6539     -45048.8    2.5848083 
  850000          850    14363    832.43649   -46584.958    1545.3636   -45039.595    2.5921628 
  855000          855    14363    839.78903   -46559.607    1559.0131   -45000.594    2.5779054 
  860000          860    14363    822.52359   -46592.146    1526.9609   -45065.185    2.5821819 
  865000          865    14363    833.88051   -46588.794    1548.0443    -45040.75    2.5971451 
  870000          870    14363    828.96165   -46576.764    1538.9128   -45037.851    2.5801731 
  875000          875    14363    835.20591   -46592.251    1550.5048   -45041.746    2.5820888 
  880000          880    14363    821.32996    -46599.24     1524.745   -45074.495    2.5859453 
  885000          885    14363    828.20338   -46557.615    1537.5051    -45020.11    2.5812951 
  890000          890    14363    834.00571    -46583.27    1548.2767   -45034.994    2.5869797 
  895000          895    14363    828.12514   -46581.184    1537.3598   -45043.824    2.5885445 
  900000          900    14363    831.15777   -46559.806    1542.9897   -45016.816    2.5825864 
  905000          905    14363    831.68792   -46582.292    1543.9739   -45038.319    2.5781276 
  910000          910    14363    831.19136   -46600.296    1543.0521   -45057.244    2.5936069 
  915000          915    14363    824.99419   -46566.496    1531.5474   -45034.948    2.5768864 
  920000          920    14363    836.01934    -46578.92    1552.0149   -45026.905    2.5798662 
  925000          925    14363    825.58971   -46581.418     1532.653   -45048.765    2.5886969 
  930000          930    14363     833.9458   -46594.537    1548.1655   -45046.372     2.581169 
  935000          935    14363    827.83421   -46567.165    1536.8197   -45030.345    2.5803436 
  940000          940    14363    835.17606   -46593.037    1550.4494   -45042.588    2.5919235 
  945000          945    14363    834.02363   -46585.011      1548.31   -45036.701    2.5842156 
  950000          950    14363    830.21716    -46575.93    1541.2435   -45034.687    2.5810028 
  955000          955    14363    830.90114   -46601.085    1542.5133   -45058.572     2.589674 
  960000          960    14363    830.45863   -46586.441    1541.6918   -45044.749    2.5886248 
  965000          965    14363    832.93586   -46582.011    1546.2906   -45035.721    2.5818129 
  970000          970    14363     827.9066    -46591.41    1536.9541   -45054.456    2.5894308 
  975000          975    14363    828.22781   -46592.384    1537.5504   -45054.834    2.5855323 
  980000          980    14363    822.76542   -46586.695    1527.4099   -45059.285    2.5803768 
  985000          985    14363    826.78635   -46593.491    1534.8745   -45058.617    2.5906787 
  990000          990    14363    824.76423   -46597.736    1531.1205   -45066.616    2.5873331 
  995000          995    14363    835.84998   -46582.833    1551.7005   -45031.133     2.584698 
 1000000         1000    14363    834.55048   -46576.056    1549.2881   -45026.768    2.5866227 
 1005000         1005    14363     828.4807   -46612.533    1538.0199   -45074.514    2.5841397 
 1010000         1010    14363    828.42575   -46587.704    1537.9179   -45049.786    2.5810685 
 1015000         1015    14363    828.86527     -46594.9    1538.7338   -45056.166    2.5851145 
 1020000         1020    14363    822.20125    -46587.99    1526.3625   -45061.627    2.5907265 
 1025000         1025    14363    833.45342   -46574.488    1547.2514   -45027.237    2.5846474 
 1030000         1030    14363    832.56813   -46589.217     1545.608   -45043.609    2.5864628 
 1035000         1035    14363    831.43564    -46611.54    1543.5056   -45068.035    2.5932999 
 1040000         1040    14363    827.60662   -46583.188    1536.3972   -45046.791    2.5819298 
[...]
 2040000         2040    14363    829.20037    -46587.92    1539.3559   -45048.565    2.5838427 
 2045000         2045    14363    835.54048   -46598.043    1551.1259   -45046.917    2.5838209 
 2050000         2050    14363    822.61494   -46582.352    1527.1305   -45055.221    2.5845273 
 2055000         2055    14363    832.16731   -46588.694    1544.8639    -45043.83    2.5810342 
 2060000         2060    14363    831.99241   -46597.864    1544.5392   -45053.325    2.5795762 
 2065000         2065    14363    820.23056   -46591.327    1522.7041   -45068.623    2.5833299 
 2070000         2070    14363    821.16365   -46601.782    1524.4363   -45077.345    2.5805857 
 2075000         2075    14363    822.31285    -46593.75    1526.5697   -45067.181    2.5822039 
 2080000         2080    14363     832.8787   -46593.512    1546.1845   -45047.327    2.5898844 
 2085000         2085    14363    819.06389   -46574.937    1520.5382   -45054.399    2.5856254 
 2090000         2090    14363    833.89809   -46597.085    1548.0769   -45049.008    2.5818261 
 2095000         2095    14363    837.51094   -46590.917     1554.784   -45036.133    2.5855597 
 2100000         2100    14363    831.08122   -46602.977    1542.8476    -45060.13    2.5841065 
 2105000         2105    14363    827.28244   -46575.463    1535.7954   -45039.668    2.5816389 
 2110000         2110    14363    837.98807   -46578.127    1555.6697   -45022.458    2.5897404 
 2115000         2115    14363    833.02023   -46596.288    1546.4472   -45049.841    2.5842248 
 2120000         2120    14363    832.97075   -46589.073    1546.3554   -45042.718    2.5799837 
 2125000         2125    14363    830.40741    -46584.34    1541.5967   -45042.743    2.5847561 
 2130000         2130    14363    832.90896   -46607.429    1546.2407   -45061.188    2.5828114 
 2135000         2135    14363    835.72186   -46573.612    1551.4627   -45022.149    2.5828758 
 2140000         2140    14363    821.29286   -46592.256    1524.6762    -45067.58    2.5861988 
 2145000         2145    14363    833.84437   -46591.959    1547.9772   -45043.982    2.5784389 
 2150000         2150    14363    821.09445   -46593.946    1524.3078   -45069.638    2.5812477 
 2155000         2155    14363    839.29044   -46592.595    1558.0875   -45034.508    2.5821543 
 2160000         2160    14363    836.58877   -46611.304     1553.072   -45058.232     2.588978 
 2165000         2165    14363     822.4517   -46598.436    1526.8275   -45071.609    2.5820532 
 2170000         2170    14363    820.98011   -46576.321    1524.0956   -45052.225     2.588137 
 2175000         2175    14363    835.39752   -46600.653    1550.8605   -45049.792     2.585354 
 2180000         2180    14363    838.10685    -46600.97    1555.8902    -45045.08    2.5806325 
 2185000         2185    14363    837.99424   -46607.018    1555.6812   -45051.336    2.5844988 
 2190000         2190    14363    829.76264   -46592.369    1540.3997   -45051.969    2.5816588 
 2195000         2195    14363     834.3639   -46583.752    1548.9417    -45034.81    2.5784496 
 2200000         2200    14363    829.73433   -46591.528    1540.3472   -45051.181    2.5866755 
 2205000         2205    14363    837.16872   -46593.308    1554.1486   -45039.159    2.5860601 
 2210000         2210    14363    835.45179   -46583.627    1550.9613   -45032.666    2.5805933 
 2215000         2215    14363    830.99245   -46606.344    1542.6828   -45063.661    2.5813193 
 2220000         2220    14363    827.63038   -46602.276    1536.4413   -45065.835    2.5883598 
 2225000         2225    14363    833.45678   -46593.668    1547.2577    -45046.41    2.5793192 
 2230000         2230    14363    825.58361   -46597.994    1532.6416   -45065.352    2.5821824 
 2235000         2235    14363    830.57346   -46597.952     1541.905   -45056.047    2.5852197 
 2240000         2240    14363     827.8025    -46601.04    1536.7609   -45064.279    2.5799347 
 2245000         2245    14363    823.63702   -46584.856    1529.0279   -45055.829    2.5841802 
 2250000         2250    14363    829.19491   -46607.872    1539.3458   -45068.526    2.5837426 
 2255000         2255    14363     822.8537   -46564.878    1527.5738   -45037.305    2.5806859 
 2260000         2260    14363    824.86677   -46587.674    1531.3109   -45056.363    2.5833156 
 2265000         2265    14363    835.60167   -46594.895    1551.2395   -45043.656    2.5862526 
 2270000         2270    14363    841.68844   -46581.552    1562.5392   -45019.013    2.5871318 
 2275000         2275    14363    834.51696   -46583.228    1549.2258   -45034.003    2.5800153 
 2280000         2280    14363    838.58771   -46599.828    1556.7829   -45043.045    2.5878749 
 2285000         2285    14363    826.73573    -46590.15    1534.7805    -45055.37    2.5809974 
 2290000         2290    14363    830.14233   -46601.995    1541.1046   -45060.891    2.5794332 
 2295000         2295    14363    838.21733   -46583.635    1556.0953    -45027.54    2.5776867 
 2300000         2300    14363     831.1089   -46602.094     1542.899   -45059.195     2.585223 
 2305000         2305    14363    831.19173   -46576.068    1543.0528   -45033.015    2.5857771 
 2310000         2310    14363    834.14256   -46577.446    1548.5308   -45028.915    2.5820421 
 2315000         2315    14363    827.56741   -46591.709    1536.3244   -45055.385     2.583568 
 2320000         2320    14363    822.88177   -46590.573    1527.6259   -45062.947    2.5797691 
 2325000         2325    14363    828.58402    -46599.32    1538.2117   -45061.108    2.5862689 
 2330000         2330    14363    818.12913     -46592.2    1518.8029   -45073.397    2.5830949 
 2335000         2335    14363    816.88908   -46587.244    1516.5008   -45070.743    2.5780585 
 2340000         2340    14363    837.31292   -46605.204    1554.4164   -45050.787     2.588505 
 2345000         2345    14363    833.88126   -46604.039    1548.0457   -45055.993    2.5821595 
 2350000         2350    14363    839.37289   -46571.472    1558.2405   -45013.231    2.5776338 
 2355000         2355    14363    824.81381   -46587.079    1531.2126   -45055.866    2.5820656 
 2360000         2360    14363    822.19159   -46595.374    1526.3446   -45069.029    2.5855399 
 2365000         2365    14363    832.42294   -46606.844    1545.3384   -45061.506    2.5806967 
 2370000         2370    14363     822.6665   -46583.647    1527.2262    -45056.42    2.5793493 
 2375000         2375    14363    824.50386   -46602.479    1530.6372   -45071.842     2.588188 
 2380000         2380    14363    826.53009   -46596.003    1534.3987   -45061.605    2.5812714 
 2385000         2385    14363    834.79307   -46587.687    1549.7384   -45037.949    2.5828981 
 2390000         2390    14363    837.47952   -46592.219    1554.7256   -45037.493    2.5863503 
 2395000         2395    14363    833.80198   -46600.322    1547.8985   -45052.424    2.5854613 
 2400000         2400    14363    841.86344   -46609.072    1562.8641   -45046.208    2.5826222 
 2405000         2405    14363    826.84998   -46603.406    1534.9926   -45068.413    2.5874527 
 2410000         2410    14363    842.89916   -46580.484    1564.7868   -45015.697    2.5833679 
 2415000         2415    14363    834.35716   -46594.444    1548.9292   -45045.515     2.583685 
 2420000         2420    14363    836.92575   -46597.225    1553.6976   -45043.527    2.5830417 
 2425000         2425    14363    826.27363   -46601.557    1533.9226   -45067.634    2.5827369 
 2430000         2430    14363    838.74896   -46579.876    1557.0823   -45022.794    2.5849119 
 2435000         2435    14363    837.06427   -46596.856    1553.9547   -45042.901    2.5868244 
 2440000         2440    14363    834.95437   -46593.465    1550.0379   -45043.428    2.5852844 
 2445000         2445    14363    836.87277   -46580.643    1553.5992   -45027.044    2.5837925 
 2450000         2450    14363    828.55851   -46601.766    1538.1644   -45063.601    2.5849478 
 2455000         2455    14363    828.91367   -46589.162    1538.8237   -45050.339    2.5821133 
 2460000         2460    14363    829.68492   -46579.425    1540.2555   -45039.169     2.584461 
 2465000         2465    14363    843.76933   -46602.069    1566.4022   -45035.666    2.5873938 
 2470000         2470    14363    839.26894   -46594.378    1558.0476   -45036.331    2.5841519 
 2475000         2475    14363    837.59488   -46596.629    1554.9398   -45041.689    2.5832918 
 2480000         2480    14363    834.73894   -46612.884    1549.6379   -45063.246     2.585848 
 2485000         2485    14363     836.5523   -46600.108    1553.0043   -45047.104    2.5792253 
 2490000         2490    14363    831.21021   -46586.731    1543.0871   -45043.644    2.5799929 
 2495000         2495    14363    827.62882   -46604.539    1536.4384   -45068.101    2.5799997 
 2500000         2500    14363    832.84182   -46596.869     1546.116   -45050.753    2.5821478 
 2505000         2505    14363    830.24564   -46606.445    1541.2964   -45065.149    2.5799208 
 2510000         2510    14363    827.13824   -46609.918    1535.5277    -45074.39    2.5853516 
 2515000         2515    14363    820.28732   -46587.614    1522.8094   -45064.805    2.5865813 
 2520000         2520    14363    822.67469   -46585.655    1527.2414   -45058.414    2.5830848 
 2525000         2525    14363    827.63116   -46592.663    1536.4428    -45056.22    2.5839116 
 2530000         2530    14363    838.01402   -46597.122    1555.7179   -45041.404    2.5837013 
 2535000         2535    14363    843.27659   -46575.261    1565.4875   -45009.773    2.5798325 
 2540000         2540    14363    830.71227   -46586.139    1542.1627   -45043.976    2.5738999 
 2545000         2545    14363    825.31293   -46591.803    1532.1392   -45059.663    2.5779216 
 2550000         2550    14363    837.33994   -46578.679    1554.4665   -45024.213    2.5826876 
 2555000         2555    14363    832.43156   -46601.799    1545.3544   -45056.445    2.5817673 
 2560000         2560    14363    824.69371   -46597.226    1530.9896   -45066.236    2.5872653 
 2565000         2565    14363     844.2958   -46604.277    1567.3796   -45036.897     2.582525 
 2570000         2570    14363    826.25617   -46594.395    1533.8902   -45060.504    2.5833358 
 2575000         2575    14363    838.89281   -46591.896    1557.3493   -45034.547    2.5855783 
 2580000         2580    14363    841.97675   -46602.719    1563.0744   -45039.645    2.5856816 
 2585000         2585    14363    823.33336   -46585.241    1528.4642   -45056.776    2.5792332 
 2590000         2590    14363    833.93257   -46609.161    1548.1409    -45061.02     2.588161 
 2595000         2595    14363    824.51385   -46578.557    1530.6557   -45047.901    2.5844138 
 2600000         2600    14363    833.17139   -46571.908    1546.7279    -45025.18    2.5816875 
 2605000         2605    14363    826.23836   -46606.415    1533.8571   -45072.558    2.5835876 
 2610000         2610    14363    831.91955   -46612.674    1544.4039   -45068.271    2.5814071 
 2615000         2615    14363    823.38612    -46582.24    1528.5622   -45053.678    2.5843236 
 2620000         2620    14363     831.4699   -46587.989    1543.5692   -45044.419    2.5827397 
 2625000         2625    14363    836.01145   -46593.182    1552.0002   -45041.181    2.5839215 
 2630000         2630    14363    815.20017    -46575.71    1513.3655   -45062.344    2.5795668 
 2635000         2635    14363    824.05548   -46608.736    1529.8048   -45078.931     2.585261 
 2640000         2640    14363    829.43175   -46585.109    1539.7855   -45045.324    2.5770296 
 2645000         2645    14363    839.86734   -46593.116    1559.1585   -45033.958    2.5784748 
 2650000         2650    14363    832.39716   -46620.447    1545.2906   -45075.157    2.5835089 
 2655000         2655    14363    826.30585   -46596.439    1533.9824   -45062.457    2.5850338 
 2660000         2660    14363    824.83297    -46575.53    1531.2481   -45044.282    2.5803943 
 2665000         2665    14363    832.30159   -46599.314    1545.1131   -45054.201    2.5826213 
 2670000         2670    14363    816.15538   -46596.637    1515.1388   -45081.499    2.5812864 
 2675000         2675    14363    828.28832    -46571.55    1537.6628   -45033.887    2.5789179 
 2680000         2680    14363    825.68424   -46598.911    1532.8285   -45066.083    2.5852644 
 2685000         2685    14363    835.90202   -46591.845    1551.7971   -45040.047     2.586986 
 2690000         2690    14363     829.2829   -46585.079    1539.5091    -45045.57    2.5767368 
 2695000         2695    14363    829.19104   -46587.229    1539.3386    -45047.89    2.5849114 
 2700000         2700    14363    831.86171   -46600.614    1544.2965   -45056.318    2.5830768 
 2705000         2705    14363    840.40104   -46596.846    1560.1492   -45036.697    2.5776205 
 2710000         2710    14363    833.80936   -46609.052    1547.9122    -45061.14      2.58013 
 2715000         2715    14363    839.02143   -46595.928    1557.5881    -45038.34    2.5868491 
 2720000         2720    14363    832.15312   -46591.817    1544.8375   -45046.979    2.5815537 
 2725000         2725    14363    825.03744   -46588.246    1531.6277   -45056.618    2.5821481 
 2730000         2730    14363      837.514   -46596.161    1554.7896   -45041.371    2.5875961 
 2735000         2735    14363     832.0048   -46600.138    1544.5622   -45055.576    2.5826328 
 2740000         2740    14363    839.60035   -46583.817    1558.6628   -45025.154    2.5840089 
 2745000         2745    14363    830.28808   -46579.218    1541.3752   -45037.843    2.5868817 
 2750000         2750    14363    818.78975   -46579.257    1520.0293   -45059.228      2.58037 
 2755000         2755    14363     832.7507   -46592.266    1545.9469    -45046.32    2.5813302 
 2760000         2760    14363    837.94072   -46587.116    1555.5818   -45031.534    2.5827844 
 2765000         2765    14363    833.93389   -46583.641    1548.1434   -45035.498    2.5809796 
 2770000         2770    14363    835.93199   -46593.911    1551.8527   -45042.058    2.5807295 
 2775000         2775    14363    827.21586   -46602.867    1535.6718   -45067.195    2.5866598 
 2780000         2780    14363    838.42929   -46595.075    1556.4888   -45038.586    2.5815224 
 2785000         2785    14363    825.90193   -46590.737    1533.2326   -45057.505     2.582093 
 2790000         2790    14363    837.02839   -46597.151    1553.8881   -45043.262    2.5849312 
 2795000         2795    14363    834.67447   -46598.818    1549.5182   -45049.299    2.5845062 
 2800000         2800    14363    830.51205   -46592.538     1541.791   -45050.747      2.57678 
 2805000         2805    14363    829.53811   -46585.889    1539.9829   -45045.906    2.5822571 
 2810000         2810    14363    830.35976   -46595.147    1541.5083   -45053.639    2.5869451 
 2815000         2815    14363     829.0141   -46578.186    1539.0101   -45039.176    2.5778362 
 2820000         2820    14363    834.93505   -46602.041     1550.002   -45052.039    2.5811045 
 2825000         2825    14363    825.82647   -46586.041    1533.0925   -45052.949    2.5879386 
 2830000         2830    14363    826.57901   -46591.773    1534.4895   -45057.284    2.5773269 
 2835000         2835    14363     828.8216   -46594.767    1538.6528   -45056.114    2.5845995 
 2840000         2840    14363    822.95486   -46625.809    1527.7615   -45098.047    2.5857482 
 2845000         2845    14363    829.13906   -46588.499    1539.2421   -45049.257    2.5814509 
 2850000         2850    14363     829.7228   -46585.708    1540.3258   -45045.382    2.5828554 
 2855000         2855    14363    831.40215   -46586.591    1543.4434   -45043.147    2.5790622 
 2860000         2860    14363    819.63961   -46582.627     1521.607    -45061.02    2.5816864 
 2865000         2865    14363    831.18109   -46603.668     1543.033   -45060.635    2.5814215 
 2870000         2870    14363    821.20331   -46592.823    1524.5099   -45068.314    2.5832064 
 2875000         2875    14363    832.89279   -46573.258    1546.2107   -45027.047    2.5811299 
 2880000         2880    14363    830.64494   -46592.205    1542.0377   -45050.168    2.5797346 
 2885000         2885    14363    826.24978   -46606.736    1533.8784   -45072.857    2.5878484 
 2890000         2890    14363    829.78291    -46586.21    1540.4374   -45045.773    2.5791829 
 2895000         2895    14363    825.55079   -46572.007    1532.5807   -45039.427    2.5800762 
 2900000         2900    14363    833.69765   -46606.909    1547.7048   -45059.204    2.5852965 
 2905000         2905    14363    835.00209   -46584.584    1550.1264   -45034.458    2.5842242 
 2910000         2910    14363    835.06937   -46609.029    1550.2513   -45058.778    2.5807903 
 2915000         2915    14363    828.57892   -46593.798    1538.2023   -45055.596    2.5836824 
 2920000         2920    14363    831.56093   -46602.052    1543.7382   -45058.314    2.5841374 
 2925000         2925    14363    827.86049   -46589.412    1536.8685   -45052.544    2.5831041 
 2930000         2930    14363    825.97226   -46618.097    1533.3631   -45084.734    2.5887677 
 2935000         2935    14363     829.2854   -46606.107    1539.5138   -45066.594    2.5857238 
 2940000         2940    14363    839.08998   -46581.693    1557.7153   -45023.978    2.5788828 
 2945000         2945    14363    831.86836   -46591.873    1544.3089   -45047.564    2.5882506 
 2950000         2950    14363    831.15681   -46589.327    1542.9879   -45046.339     2.584063 
 2955000         2955    14363    831.74154   -46575.154    1544.0734   -45031.081    2.5826478 
 2960000         2960    14363    831.14529    -46587.13    1542.9665   -45044.164    2.5844942 
 2965000         2965    14363    830.11222   -46591.237    1541.0487   -45050.188     2.585049 
 2970000         2970    14363    828.67029   -46599.682    1538.3719    -45061.31    2.5836751 
 2975000         2975    14363    821.88974   -46605.759    1525.7842   -45079.975    2.5854928 
 2980000         2980    14363    827.58399   -46597.159    1536.3552   -45060.804    2.5895789 
 2985000         2985    14363    833.63467    -46606.82    1547.5879   -45059.232    2.5835921 
 2990000         2990    14363    826.99223    -46613.83    1535.2567   -45078.573    2.5836239 
 2995000         2995    14363    832.20589   -46606.937    1544.9355   -45062.002    2.5873988 
 3000000         3000    14363    831.53357   -46587.262    1543.6874   -45043.575    2.5827892 
Loop time of 17971.3 on 8 procs for 3000000 steps with 14363 atoms

Performance: 14.423 ns/day, 1.664 hours/ns, 166.933 timesteps/s
100.0% CPU use with 8 MPI tasks x no OpenMP threads

MPI task timing breakdown:
Section |  min time  |  avg time  |  max time  |%varavg| %total
---------------------------------------------------------------
Pair    | 15692      | 16283      | 17131      | 382.5 | 90.61
Neigh   | 228.43     | 240.07     | 246.01     |  43.6 |  1.34
Comm    | 353.29     | 1180.1     | 1811.9     |1489.8 |  6.57
Output  | 0.66696    | 0.66889    | 0.68003    |   0.5 |  0.00
Modify  | 143.6      | 195.46     | 321.63     | 511.2 |  1.09
Other   |            | 72         |            |       |  0.40

Nlocal:        1795.38 ave        1813 max        1770 min
Histogram: 2 0 0 0 0 1 2 0 1 2
Nghost:          10764 ave       11537 max        9874 min
Histogram: 2 1 1 0 0 0 0 0 0 4
Neighs:         123487 ave      126360 max      119332 min
Histogram: 2 0 0 0 1 1 0 1 1 2
FullNghs:       249922 ave      251418 max      247264 min
Histogram: 1 0 0 0 1 1 1 1 2 1

Total # of neighbors = 1999372
Ave neighs/atom = 139.20295
Neighbor list builds = 59986
Dangerous builds = 0
All done
Total wall time: 5:00:17
