LAMMPS (7 Jan 2022)
# GB setup adapted from lammps tutorial 3

# ---------- Initialize Simulation ---------------------
clear
units metal
dimension 3
boundary p p p
atom_style atomic

# ---------- Create Atomistic Structure ---------------------
lattice fcc 4.1115
Lattice spacing in x,y,z = 4.1115 4.1115 4.1115
region whole block -30 30 -60 30 0 1
create_box 2 whole
Created orthogonal box = (-123.345 -246.69 0) to (123.345 123.345 4.1115)
  2 by 4 by 1 MPI processor grid
lattice fcc 4.1115 orient x  0  3  1 orient y  0 -1  3 orient z  1  0  0
Lattice spacing in x,y,z = 5.2006818 5.2006818 4.1115
create_atoms 1 region whole
Created 21566 atoms
  using lattice units in orthogonal box = (-123.345 -246.69 0) to (123.345 123.345 4.1115)
  create_atoms CPU = 0.002 seconds

region cyl cylinder z 0 0 5 0 1
region rec block -5 5 -60 0 0 1
region curve union 2 cyl rec
delete_atoms region curve
Deleted 3318 atoms, new total = 18248
lattice fcc 4.1115 orient x  0  3 -1 orient y  0  1  3 orient z  1  0  0
Lattice spacing in x,y,z = 5.2006818 5.2006818 4.1115
create_atoms 2 region curve
Created 3318 atoms
  using lattice units in orthogonal box = (-123.345 -246.69 0) to (123.345 123.345 4.1115)
  create_atoms CPU = 0.001 seconds
group large type 1
18248 atoms in group large
group small type 2
3318 atoms in group small

# ---------- Define Interatomic Potential ---------------------
pair_style eam/alloy
pair_coeff * * Al99.eam.alloy Al Al
neighbor 2.0 bin
neigh_modify delay 10 check yes

# pair_style lj/cut 5.613022
# pair_coeff * * 0.50722 2.57366
# mass * 26.982

# ---------- Displace atoms and delete overlapping atoms ---------------------
displace_atoms small move 0 0 0 units lattice
Displacing atoms ...
delete_atoms overlap 0.35 large small
System init for delete_atoms ...
Neighbor list info ...
  update every 1 steps, delay 10 steps, check yes
  max neighbors/atom: 2000, page size: 100000
  master list distance cutoff = 8.28721
  ghost atom cutoff = 8.28721
  binsize = 4.143605, bins = 60 90 1
  2 neighbor lists, perpetual/occasional/extra = 1 1 0
  (1) command delete_atoms, occasional
      attributes: full, newton on
      pair build: full/bin/atomonly
      stencil: full/bin/3d
      bin: standard
  (2) pair eam/alloy, perpetual
      attributes: half, newton on
      pair build: half/bin/atomonly/newton
      stencil: half/bin/3d
      bin: standard
Deleted 8 atoms, new total = 21558

# ---------- Define Settings ---------------------
compute csym all centro/atom fcc
compute eng all pe/atom
compute eatoms all reduce sum c_eng

# ---------- Run Minimization ---------------------
reset_timestep 0
thermo 10
thermo_style custom step pe lx ly lz press pxx pyy pzz c_eatoms
dump 		1 all cfg 25 dump.initialize.*.cfg mass type xs ys zs c_csym c_eng fx fy fz
dump_modify     1 element Al Al
min_style cg
minimize 1e-15 1e-15 5000 5000
WARNING: Using 'neigh_modify every 1 delay 0 check yes' setting during minimization (../min.cpp:187)
Neighbor list info ...
  update every 1 steps, delay 0 steps, check yes
  max neighbors/atom: 2000, page size: 100000
  master list distance cutoff = 8.28721
  ghost atom cutoff = 8.28721
  binsize = 4.143605, bins = 60 90 1
  2 neighbor lists, perpetual/occasional/extra = 1 1 0
  (1) pair eam/alloy, perpetual
      attributes: half, newton on
      pair build: half/bin/atomonly/newton
      stencil: half/bin/3d
      bin: standard
  (2) compute centro/atom, occasional
      attributes: full, newton on
      pair build: full/bin/atomonly
      stencil: full/bin/3d
      bin: standard
Per MPI rank memory allocation (min/avg/max) = 14.05 | 14.05 | 14.05 Mbytes
Step PotEng Lx Ly Lz Press Pxx Pyy Pzz c_eatoms 
       0   -71693.321       246.69      370.035       4.1115   -32048.913   -29890.556   -32437.386   -33818.797   -71693.321 
      10   -72060.495       246.69      370.035       4.1115   -31093.649   -29378.892   -31621.031   -32281.022   -72060.495 
      20    -72083.35       246.69      370.035       4.1115   -30873.101    -29201.02   -31213.844    -32204.44    -72083.35 
      30   -72088.989       246.69      370.035       4.1115   -30757.774   -29054.661   -31043.248   -32175.414   -72088.989 
      40   -72091.861       246.69      370.035       4.1115   -30715.356   -28973.337   -30993.865   -32178.866   -72091.861 
      50   -72093.639       246.69      370.035       4.1115    -30747.68   -28981.963   -31040.693   -32220.385   -72093.639 
      60   -72094.982       246.69      370.035       4.1115   -30805.197   -29038.949   -31106.892    -32269.75   -72094.982 
      70   -72096.133       246.69      370.035       4.1115   -30841.085   -29089.136    -31132.03   -32302.089   -72096.133 
      80   -72096.833       246.69      370.035       4.1115   -30885.138   -29139.747   -31169.506   -32346.161   -72096.833 
      90   -72097.538       246.69      370.035       4.1115   -30911.919   -29171.928   -31194.327   -32369.501   -72097.538 
     100   -72098.019       246.69      370.035       4.1115   -30953.973   -29214.314   -31238.104     -32409.5   -72098.019 
     110   -72098.463       246.69      370.035       4.1115   -30987.494   -29262.589   -31257.685   -32442.209   -72098.463 
     120   -72099.193       246.69      370.035       4.1115    -31102.69   -29442.897   -31333.495   -32531.677   -72099.193 
     130   -72100.275       246.69      370.035       4.1115   -31224.322   -29638.065   -31418.073    -32616.83   -72100.275 
     140   -72101.047       246.69      370.035       4.1115   -31237.995   -29674.968    -31411.79   -32627.227   -72101.047 
     150   -72102.119       246.69      370.035       4.1115    -31251.98   -29703.161   -31415.951   -32636.828   -72102.119 
     160   -72102.881       246.69      370.035       4.1115   -31292.996   -29751.715   -31464.466   -32662.808   -72102.881 
     170   -72103.387       246.69      370.035       4.1115   -31302.101   -29757.243   -31480.591   -32668.469   -72103.387 
     180    -72103.57       246.69      370.035       4.1115    -31324.42   -29777.308   -31516.957   -32678.993    -72103.57 
     190   -72103.838       246.69      370.035       4.1115   -31353.575   -29809.517   -31551.909   -32699.299   -72103.838 
     200   -72104.275       246.69      370.035       4.1115   -31356.512   -29823.798   -31545.484   -32700.254   -72104.275 
     210   -72104.629       246.69      370.035       4.1115   -31367.845   -29832.925   -31561.784   -32708.826   -72104.629 
     220   -72104.937       246.69      370.035       4.1115   -31392.052   -29849.508   -31594.353   -32732.294   -72104.937 
     230    -72105.07       246.69      370.035       4.1115   -31395.428   -29854.952   -31597.163   -32734.169    -72105.07 
     240   -72105.123       246.69      370.035       4.1115   -31399.646   -29864.355   -31601.569   -32733.015   -72105.123 
     250   -72105.215       246.69      370.035       4.1115   -31406.918   -29885.702   -31601.768   -32733.284   -72105.215 
     260   -72105.432       246.69      370.035       4.1115   -31408.239   -29902.861   -31586.634   -32735.221   -72105.432 
     270   -72105.526       246.69      370.035       4.1115   -31404.019    -29902.75   -31575.203   -32734.103   -72105.526 
     280   -72105.606       246.69      370.035       4.1115   -31404.828   -29905.767   -31576.066   -32732.652   -72105.606 
     290    -72105.63       246.69      370.035       4.1115   -31406.886   -29909.736   -31576.146   -32734.777    -72105.63 
     300   -72105.704       246.69      370.035       4.1115   -31416.402    -29923.68   -31581.733   -32743.793   -72105.704 
     310   -72105.949       246.69      370.035       4.1115   -31412.059   -29917.066   -31578.977   -32740.134   -72105.949 
     320   -72105.997       246.69      370.035       4.1115   -31410.461   -29915.066   -31576.587    -32739.73   -72105.997 
     330   -72106.038       246.69      370.035       4.1115   -31409.424   -29910.654   -31577.087   -32740.532   -72106.038 
     340   -72106.049       246.69      370.035       4.1115   -31409.942   -29911.052   -31577.534   -32741.241   -72106.049 
     350   -72106.061       246.69      370.035       4.1115   -31409.401   -29907.914   -31577.941   -32742.349   -72106.061 
     360   -72106.104       246.69      370.035       4.1115    -31407.84    -29904.83   -31574.156   -32744.533   -72106.104 
     370   -72106.122       246.69      370.035       4.1115   -31408.838   -29905.726   -31575.986   -32744.802   -72106.122 
     380   -72106.152       246.69      370.035       4.1115   -31405.873   -29904.102   -31570.446   -32743.072   -72106.152 
     390   -72106.172       246.69      370.035       4.1115   -31406.791   -29905.185   -31571.962   -32743.225   -72106.172 
     400   -72106.206       246.69      370.035       4.1115    -31404.94   -29904.688   -31567.471   -32742.662   -72106.206 
     410   -72106.216       246.69      370.035       4.1115   -31404.684   -29904.525   -31567.259   -32742.266   -72106.216 
     420    -72106.22       246.69      370.035       4.1115   -31404.396   -29903.758   -31567.377   -32742.054    -72106.22 
     430   -72106.225       246.69      370.035       4.1115   -31404.096   -29902.951   -31567.707   -32741.628   -72106.225 
     440   -72106.241       246.69      370.035       4.1115   -31402.059     -29900.7   -31565.149   -32740.327   -72106.241 
     450   -72106.279       246.69      370.035       4.1115   -31402.843   -29900.448   -31566.001   -32742.081   -72106.279 
     460   -72106.286       246.69      370.035       4.1115   -31403.826   -29901.603   -31567.076   -32742.799   -72106.286 
     470   -72106.289       246.69      370.035       4.1115   -31404.095   -29902.188   -31567.156    -32742.94   -72106.289 
     480   -72106.312       246.69      370.035       4.1115    -31401.55   -29900.847   -31561.153   -32742.649   -72106.312 
     490    -72106.32       246.69      370.035       4.1115   -31402.015   -29900.368   -31562.369   -32743.308    -72106.32 
     500   -72106.324       246.69      370.035       4.1115   -31402.569    -29899.33   -31563.279     -32745.1   -72106.324 
     510   -72106.328       246.69      370.035       4.1115   -31402.587   -29898.034   -31563.632   -32746.095   -72106.328 
     520   -72106.341       246.69      370.035       4.1115   -31399.812   -29893.484   -31558.155   -32747.796   -72106.341 
     530   -72106.356       246.69      370.035       4.1115   -31399.592    -29894.29   -31557.539   -32746.949   -72106.356 
     540    -72106.36       246.69      370.035       4.1115   -31399.962   -29895.445   -31557.905   -32746.536    -72106.36 
     550   -72106.361       246.69      370.035       4.1115   -31399.975   -29895.319   -31558.126   -32746.479   -72106.361 
     560   -72106.362       246.69      370.035       4.1115   -31400.108   -29895.424   -31558.374   -32746.526   -72106.362 
     570   -72106.362       246.69      370.035       4.1115   -31400.281   -29895.704   -31558.609   -32746.529   -72106.362 
     580   -72106.363       246.69      370.035       4.1115   -31400.359   -29895.712   -31559.104   -32746.261   -72106.363 
     590   -72106.365       246.69      370.035       4.1115   -31400.081   -29894.989   -31559.364    -32745.89   -72106.365 
     600   -72106.366       246.69      370.035       4.1115   -31400.057   -29894.106   -31560.081   -32745.983   -72106.366 
     610   -72106.367       246.69      370.035       4.1115   -31400.306   -29893.757   -31560.764   -32746.395   -72106.367 
     620   -72106.368       246.69      370.035       4.1115   -31400.439   -29893.611   -31561.189   -32746.517   -72106.368 
     630   -72106.368       246.69      370.035       4.1115   -31400.456   -29893.393   -31561.371   -32746.604   -72106.368 
     640   -72106.368       246.69      370.035       4.1115   -31400.491   -29893.404   -31561.377   -32746.691   -72106.368 
     650   -72106.369       246.69      370.035       4.1115   -31400.567   -29893.572   -31561.368    -32746.76   -72106.369 
     660   -72106.369       246.69      370.035       4.1115   -31400.628   -29893.963   -31561.062   -32746.858   -72106.369 
     670   -72106.388       246.69      370.035       4.1115   -31398.247   -29893.217   -31554.787   -32746.736   -72106.388 
     680   -72106.392       246.69      370.035       4.1115   -31398.225   -29892.581   -31555.325   -32746.768   -72106.392 
     690   -72106.393       246.69      370.035       4.1115   -31398.275   -29892.705   -31555.386   -32746.735   -72106.393 
     700   -72106.393       246.69      370.035       4.1115   -31398.431   -29892.852   -31555.568   -32746.872   -72106.393 
     710   -72106.393       246.69      370.035       4.1115   -31398.339   -29892.727   -31555.483   -32746.807   -72106.393 
     720   -72106.393       246.69      370.035       4.1115   -31398.323   -29892.682   -31555.505   -32746.782   -72106.393 
     730   -72106.394       246.69      370.035       4.1115   -31398.241   -29892.503   -31555.528   -32746.691   -72106.394 
     740   -72106.394       246.69      370.035       4.1115   -31398.177   -29892.433   -31555.514   -32746.585   -72106.394 
     750   -72106.394       246.69      370.035       4.1115   -31398.198   -29892.404    -31555.61    -32746.58   -72106.394 
     760   -72106.394       246.69      370.035       4.1115    -31398.21   -29892.335   -31555.657   -32746.638   -72106.394 
     770   -72106.394       246.69      370.035       4.1115   -31398.211   -29892.252   -31555.724   -32746.656   -72106.394 
     780   -72106.394       246.69      370.035       4.1115   -31398.201    -29892.19   -31555.761   -32746.651   -72106.394 
     790   -72106.394       246.69      370.035       4.1115    -31398.21   -29892.172   -31555.797   -32746.661   -72106.394 
     800   -72106.394       246.69      370.035       4.1115   -31398.186   -29892.094    -31555.79   -32746.675   -72106.394 
     810   -72106.394       246.69      370.035       4.1115   -31398.169   -29892.038    -31555.79   -32746.679   -72106.394 
     820   -72106.394       246.69      370.035       4.1115   -31398.148   -29891.996   -31555.781   -32746.666   -72106.394 
     830   -72106.394       246.69      370.035       4.1115   -31398.113   -29891.946   -31555.766   -32746.627   -72106.394 
     840   -72106.394       246.69      370.035       4.1115   -31398.116   -29891.945    -31555.79   -32746.614   -72106.394 
     850   -72106.394       246.69      370.035       4.1115   -31398.127   -29891.958   -31555.814   -32746.608   -72106.394 
     860   -72106.394       246.69      370.035       4.1115   -31398.128   -29891.966   -31555.823   -32746.596   -72106.394 
     870   -72106.394       246.69      370.035       4.1115   -31398.123   -29891.966    -31555.82   -32746.582   -72106.394 
     880   -72106.394       246.69      370.035       4.1115   -31398.116    -29891.97   -31555.803   -32746.576   -72106.394 
     890   -72106.394       246.69      370.035       4.1115   -31398.111   -29891.981   -31555.786   -32746.567   -72106.394 
     900   -72106.394       246.69      370.035       4.1115   -31398.111   -29891.998    -31555.78   -32746.557   -72106.394 
     910   -72106.394       246.69      370.035       4.1115   -31398.115    -29892.01   -31555.776   -32746.558   -72106.394 
     920   -72106.394       246.69      370.035       4.1115   -31398.114   -29892.013   -31555.769   -32746.559   -72106.394 
     930   -72106.394       246.69      370.035       4.1115   -31398.112   -29892.015   -31555.758   -32746.563   -72106.394 
     940   -72106.394       246.69      370.035       4.1115   -31398.113   -29892.021   -31555.751   -32746.568   -72106.394 
     950   -72106.394       246.69      370.035       4.1115   -31398.118   -29892.027   -31555.752   -32746.575   -72106.394 
     960   -72106.394       246.69      370.035       4.1115   -31398.116   -29892.021    -31555.75   -32746.577   -72106.394 
     970   -72106.394       246.69      370.035       4.1115   -31398.113   -29892.015   -31555.747   -32746.577   -72106.394 
     980   -72106.394       246.69      370.035       4.1115   -31398.113   -29892.019   -31555.744   -32746.577   -72106.394 
     990   -72106.394       246.69      370.035       4.1115   -31398.114   -29892.025   -31555.739   -32746.577   -72106.394 
    1000   -72106.394       246.69      370.035       4.1115   -31398.115   -29892.031   -31555.736   -32746.577   -72106.394 
    1010   -72106.394       246.69      370.035       4.1115   -31398.114   -29892.032   -31555.733   -32746.576   -72106.394 
    1020   -72106.394       246.69      370.035       4.1115   -31398.114   -29892.033   -31555.731   -32746.577   -72106.394 
    1028   -72106.394       246.69      370.035       4.1115   -31398.114   -29892.034    -31555.73   -32746.578   -72106.394 
Loop time of 16.4884 on 8 procs for 1028 steps with 21558 atoms

99.3% CPU use with 8 MPI tasks x no OpenMP threads

Minimization stats:
  Stopping criterion = energy tolerance
  Energy initial, next-to-last, final = 
      -71693.321459093  -72106.3937114927  -72106.3937114927
  Force two-norm initial, final = 137.50879 7.4633995e-05
  Force max component initial, final = 27.118195 1.9520739e-05
  Final line search alpha, max atom move = 1 1.9520739e-05
  Iterations, force evaluations = 1028 1953

MPI task timing breakdown:
Section |  min time  |  avg time  |  max time  |%varavg| %total
---------------------------------------------------------------
Pair    | 14.095     | 14.344     | 14.524     |   4.0 | 87.00
Neigh   | 0.08079    | 0.083708   | 0.086022   |   0.6 |  0.51
Comm    | 0.32057    | 0.52584    | 0.81172    |  24.2 |  3.19
Output  | 1.0807     | 1.1196     | 1.2732     |   5.6 |  6.79
Modify  | 0          | 0          | 0          |   0.0 |  0.00
Other   |            | 0.4149     |            |       |  2.52

Nlocal:        2694.75 ave        2707 max        2684 min
Histogram: 2 0 2 0 0 1 1 0 0 2
Nghost:        17060.5 ave       17159 max       16992 min
Histogram: 1 1 2 1 0 0 1 1 0 1
Neighs:         187077 ave      188152 max      186187 min
Histogram: 1 1 1 0 2 1 0 0 1 1
FullNghs:       374142 ave      376023 max      371560 min
Histogram: 1 0 1 0 0 2 2 0 0 2

Total # of neighbors = 2993136
Ave neighs/atom = 138.84108
Neighbor list builds = 13
Dangerous builds = 0
undump 1

# ---------- Run Minimization 2---------------------
# Now allow the box to expand/contract perpendicular to the grain boundary
reset_timestep 0
thermo 10
thermo_style custom step pe lx ly lz press pxx pyy pzz c_eatoms
fix 1 all box/relax y 0 vmax 0.001
min_style cg
minimize 1e-15 1e-15 5000 5000
WARNING: Using 'neigh_modify every 1 delay 0 check yes' setting during minimization (../min.cpp:187)
Per MPI rank memory allocation (min/avg/max) = 12.34 | 12.34 | 12.35 Mbytes
Step PotEng Lx Ly Lz Press Pxx Pyy Pzz c_eatoms 
       0   -72106.394       246.69      370.035       4.1115   -31398.114   -29892.034    -31555.73   -32746.578   -72106.394 
      10   -72167.642       246.69    366.33465       4.1115   -24132.318   -24525.236   -20705.501   -27166.219   -72167.642 
      20   -72203.159       246.69     362.6343       4.1115    -16653.29   -18990.116   -9547.2793   -21422.476   -72203.159 
      30   -72213.154       246.69    359.51073       4.1115    -10178.48   -14145.088  -0.92850723   -16389.423   -72213.154 
      40   -72213.513       246.69    359.48015       4.1115    -10173.06   -14170.909   -40.328842   -16307.941   -72213.513 
      50    -72213.72       246.69    359.45881       4.1115   -10139.311   -14137.143   -1.7332116   -16279.059    -72213.72 
      60   -72213.853       246.69    359.46573       4.1115   -10165.212   -14156.523    -41.58173   -16297.531   -72213.853 
      70   -72214.092       246.69    359.43566       4.1115   -10164.514   -14156.954   -73.168742    -16263.42   -72214.092 
      80   -72214.135       246.69    359.41822       4.1115   -10123.686   -14137.765   0.13771761   -16233.431   -72214.135 
      90   -72214.142       246.69    359.43131       4.1115    -10145.26   -14156.124   -20.387615   -16259.269   -72214.142 
     100   -72214.269       246.69    359.41753       4.1115   -10128.862   -14139.086    0.3281989   -16247.828   -72214.269 
     110   -72214.348       246.69    359.39372       4.1115   -10104.545   -14117.627    11.445335   -16207.454   -72214.348 
     120   -72214.504       246.69     359.3886       4.1115   -10097.173   -14116.486      29.7148   -16204.746   -72214.504 
     130   -72214.505       246.69     359.3966       4.1115   -10114.119   -14127.406     4.614294   -16219.566   -72214.505 
     140   -72214.543       246.69    359.41813       4.1115   -10157.619   -14170.361   -50.634007   -16251.863   -72214.543 
     150   -72214.567       246.69    359.40272       4.1115   -10124.495   -14138.363   -1.2849459   -16233.836   -72214.567 
     160   -72214.657       246.69    359.41105       4.1115   -10140.387   -14170.293  -0.25180432   -16250.617   -72214.657 
     170   -72214.716       246.69    359.40374       4.1115   -10137.448   -14170.178  0.051749119   -16242.217   -72214.716 
     180   -72214.799       246.69    359.40129       4.1115   -10141.675   -14179.185 -0.058980447   -16245.782   -72214.799 
     190    -72214.82       246.69     359.3992       4.1115   -10139.355   -14178.612    3.6770317   -16243.128    -72214.82 
     200   -72214.846       246.69    359.40162       4.1115   -10147.327   -14186.771   -6.3604241    -16248.85   -72214.846 
     210   -72214.865       246.69    359.39947       4.1115   -10144.683   -14186.843  -0.06428569   -16247.143   -72214.865 
     220   -72214.884       246.69    359.39736       4.1115   -10141.952   -14185.676    4.1375907   -16244.319   -72214.884 
     230   -72214.906       246.69    359.40047       4.1115    -10150.88   -14193.963   -7.8352388   -16250.842   -72214.906 
     240   -72214.923       246.69    359.39784       4.1115   -10146.894   -14192.602 -0.069413993    -16248.01   -72214.923 
     250   -72214.939       246.69    359.39578       4.1115   -10144.252   -14191.408    3.8531607     -16245.2   -72214.939 
     260   -72214.961       246.69    359.39884       4.1115   -10153.071   -14199.432   -8.2817447   -16251.499   -72214.961 
     270   -72214.981       246.69    359.39599       4.1115   -10148.606   -14197.673  0.084248553    -16248.23   -72214.981 
     280   -72214.989       246.69    359.39421       4.1115   -10147.893   -14200.674    5.0432299   -16248.047   -72214.989 
     290   -72215.141       246.69    359.33714       4.1115   -10026.776    -14111.44    185.00392   -16153.891   -72215.141 
     300   -72215.248       246.69     359.3925       4.1115   -10142.995   -14194.977    8.1510755    -16242.16   -72215.248 
     310   -72215.332       246.69    359.39492       4.1115    -10146.93   -14196.137  -0.04435303    -16244.61   -72215.332 
     320   -72215.442       246.69    359.39399       4.1115   -10141.611   -14186.019   0.80868698   -16239.623   -72215.442 
     330   -72215.472       246.69    359.40616       4.1115   -10167.926   -14204.984   -38.664045   -16260.129   -72215.472 
     340    -72215.49       246.69    359.39423       4.1115    -10142.78   -14186.422  -0.33505161   -16241.585    -72215.49 
     350   -72215.503       246.69    359.39332       4.1115   -10140.708   -14183.891    1.4359745    -16239.67   -72215.503 
     360   -72215.517       246.69    359.39881       4.1115   -10152.613   -14192.077   -16.863051     -16248.9   -72215.517 
     370   -72215.526       246.69    359.39357       4.1115   -10141.746   -14184.017  -0.22788424   -16240.992   -72215.526 
     380   -72215.535       246.69    359.39276       4.1115   -10140.091   -14182.011    1.1468072    -16239.41   -72215.535 
     390   -72215.546       246.69    359.39869       4.1115   -10153.169    -14191.32   -18.726343    -16249.46   -72215.546 
     400   -72215.554       246.69    359.39282       4.1115   -10141.119   -14182.568  -0.19729244   -16240.591   -72215.554 
     410   -72215.562       246.69    359.39198       4.1115   -10139.736   -14181.121    1.1313248   -16239.217   -72215.562 
     420   -72215.573       246.69    359.39846       4.1115   -10154.421   -14192.183   -20.601781   -16250.477   -72215.573 
     430   -72215.582       246.69      359.392       4.1115   -10141.429   -14183.221  -0.16736795   -16240.898   -72215.582 
     440   -72215.591       246.69    359.38689       4.1115   -10131.405   -14176.188    14.866187   -16232.895   -72215.591 
     450   -72215.619       246.69    359.39337       4.1115   -10148.101   -14191.582   -5.6394472   -16247.081   -72215.619 
     460   -72215.679       246.69    359.38409       4.1115   -10130.719   -14179.928    20.854997   -16233.085   -72215.679 
     470   -72215.694       246.69    359.39132       4.1115   -10147.041   -14193.976   -1.8454309   -16245.303   -72215.694 
     480   -72215.743       246.69    359.37891       4.1115   -10120.391    -14174.39    37.609397   -16224.393   -72215.743 
     490   -72215.743       246.69    359.38946       4.1115   -10142.903   -14191.174    4.3994957   -16241.936   -72215.743 
     500   -72215.768       246.69    359.38981       4.1115   -10143.072   -14190.272    2.0127021   -16240.956   -72215.768 
     510   -72215.829       246.69    359.38977       4.1115   -10142.242   -14189.715    3.6967208   -16240.707   -72215.829 
     520   -72215.875       246.69    359.39487       4.1115   -10152.331   -14195.562   -13.990661    -16247.44   -72215.875 
     530   -72215.943       246.69    359.40058       4.1115   -10163.808   -14201.512   -32.863723   -16257.047   -72215.943 
     540   -72215.968       246.69    359.38976       4.1115   -10140.356   -14181.044   -0.9192617   -16239.104   -72215.968 
     550   -72215.993       246.69    359.38974       4.1115   -10139.831   -14180.097   -1.0311107   -16238.364   -72215.993 
     560   -72216.006       246.69    359.39477       4.1115   -10150.671   -14188.119   -17.038567   -16246.855   -72216.006 
     570   -72216.013       246.69    359.38951       4.1115   -10139.184   -14178.988  -0.99123401   -16237.573   -72216.013 
     580   -72216.019       246.69     359.3887       4.1115   -10137.532   -14177.757    1.6819816    -16236.52   -72216.019 
     590   -72216.028       246.69    359.39453       4.1115   -10149.897   -14186.444   -17.378032   -16245.868   -72216.028 
     600   -72216.034       246.69    359.38916       4.1115   -10138.236   -14177.144  -0.98714371   -16236.577   -72216.034 
     610    -72216.04       246.69    359.38844       4.1115   -10136.851    -14176.14    1.4044366   -16235.817    -72216.04 
     620   -72216.048       246.69    359.39367       4.1115     -10148.1   -14184.142   -15.734062   -16244.423   -72216.048 
     630   -72216.053       246.69    359.38885       4.1115   -10137.803   -14176.057   -1.0740195   -16236.276   -72216.053 
     640   -72216.059       246.69     359.3882       4.1115   -10136.666   -14175.381    1.1087283   -16235.726   -72216.059 
     650   -72216.065       246.69    359.39265       4.1115   -10146.455   -14182.559   -13.540245   -16243.265   -72216.065 
     660   -72216.069       246.69    359.38855       4.1115   -10137.869   -14175.985   -1.1387041   -16236.483   -72216.069 
     670   -72216.074       246.69    359.38792       4.1115   -10136.899   -14175.547   0.89147144   -16236.041   -72216.074 
     680   -72216.079       246.69     359.3917       4.1115   -10145.424   -14181.996   -11.653298   -16242.622   -72216.079 
     690   -72216.082       246.69    359.38818       4.1115   -10138.243   -14176.649   -1.1403503   -16236.941   -72216.082 
     700   -72216.086       246.69    359.38758       4.1115   -10137.397   -14176.384   0.76004466   -16236.566   -72216.086 
     710    -72216.09       246.69    359.39091       4.1115   -10145.109   -14182.397   -10.414208   -16242.516    -72216.09 
     720   -72216.093       246.69    359.38776       4.1115   -10138.865   -14177.905   -1.1344255   -16237.556   -72216.093 
     730   -72216.096       246.69    359.38716       4.1115   -10138.105   -14177.795   0.70194257   -16237.223   -72216.096 
     740     -72216.1       246.69    359.39024       4.1115   -10145.462   -14183.731   -9.7685225   -16242.885     -72216.1 
     750   -72216.103       246.69    359.38728       4.1115   -10139.795   -14179.866   -1.1670552   -16238.352   -72216.103 
     760   -72216.106       246.69    359.38664       4.1115   -10139.102   -14179.962   0.71177334   -16238.056   -72216.106 
     770    -72216.11       246.69    359.38994       4.1115   -10147.214   -14186.782   -10.583759   -16244.275    -72216.11 
     780   -72216.113       246.69    359.38662       4.1115   -10141.123    -14182.96   -1.0346483   -16239.374   -72216.113 
     790   -72216.117       246.69    359.38596       4.1115   -10140.652   -14183.535   0.83072106   -16239.251   -72216.117 
     800   -72216.123       246.69     359.3902       4.1115   -10151.201   -14192.645   -13.674528   -16247.284   -72216.123 
     810   -72216.127       246.69    359.38577       4.1115   -10143.027   -14187.603  -0.80449496   -16240.674   -72216.127 
     820   -72216.132       246.69    359.38503       4.1115    -10142.64   -14188.501    1.1634389   -16240.584   -72216.132 
     830    -72216.14       246.69    359.38979       4.1115   -10154.542   -14198.851   -15.253974   -16249.522    -72216.14 
     840   -72216.146       246.69    359.38481       4.1115   -10145.267   -14193.023  -0.84402604   -16241.934   -72216.146 
     850   -72216.152       246.69    359.38398       4.1115   -10144.699   -14193.762     1.342974   -16241.678   -72216.152 
     860    -72216.16       246.69    359.38911       4.1115   -10157.291   -14204.407   -16.387101    -16251.08    -72216.16 
     870   -72216.167       246.69    359.38378       4.1115   -10147.145   -14197.667  -0.98066913   -16242.789   -72216.167 
     880   -72216.173       246.69    359.38293       4.1115    -10146.36   -14197.998    1.2887138    -16242.37   -72216.173 
     890   -72216.181       246.69    359.38783       4.1115   -10158.128   -14207.563   -15.645308   -16251.177   -72216.181 
     900   -72216.186       246.69    359.38283       4.1115   -10148.293   -14200.611   -1.0599029   -16243.209   -72216.186 
     910   -72216.192       246.69    359.38207       4.1115   -10147.408    -14200.53    1.0486069   -16242.743   -72216.192 
     920   -72216.198       246.69    359.38628       4.1115   -10157.284   -14208.241   -13.421408   -16250.189   -72216.198 
     930   -72216.202       246.69    359.38207       4.1115   -10148.834   -14202.016    -1.093474   -16243.393   -72216.202 
     940   -72216.206       246.69     359.3814       4.1115   -10147.942   -14201.705   0.81890748    -16242.94   -72216.206 
     950   -72216.211       246.69    359.38492       4.1115    -10156.05   -14207.848   -11.189454   -16249.113   -72216.211 
     960   -72216.214       246.69    359.38146       4.1115   -10149.032   -14202.531     -1.06047   -16243.506   -72216.214 
     970   -72216.217       246.69    359.38087       4.1115   -10148.173   -14202.113   0.66925518   -16243.075   -72216.217 
     980   -72216.221       246.69    359.38385       4.1115   -10155.004    -14207.18    -9.523642    -16248.31   -72216.221 
     990   -72216.223       246.69    359.38092       4.1115   -10149.039   -14202.572  -0.98813131   -16243.557   -72216.223 
    1000   -72216.226       246.69    359.38038       4.1115   -10148.224   -14202.115   0.58945251   -16243.146   -72216.226 
    1010   -72216.229       246.69    359.38309       4.1115   -10154.453   -14206.672   -8.7567886   -16247.929   -72216.229 
    1020   -72216.231       246.69    359.38037       4.1115   -10148.927   -14202.361  -0.89930451   -16243.522   -72216.231 
    1030   -72216.233       246.69    359.37984       4.1115   -10148.158   -14201.913    0.5691776   -16243.132   -72216.233 
    1040   -72216.236       246.69    359.38275       4.1115    -10154.83   -14206.788   -9.4669543   -16248.234   -72216.236 
    1050   -72216.238       246.69    359.37975       4.1115   -10148.721    -14202.04   -0.7748923   -16243.347   -72216.238 
    1060   -72216.241       246.69    359.37924       4.1115   -10147.997   -14201.631   0.62041586   -16242.982   -72216.241 
    1070   -72216.244       246.69    359.38238       4.1115   -10155.163   -14206.858   -10.190183   -16248.441   -72216.244 
    1080   -72216.246       246.69    359.37915       4.1115   -10148.531   -14201.698  -0.75417648    -16243.14   -72216.246 
    1090   -72216.249       246.69    359.37865       4.1115   -10147.798   -14201.265   0.63877161   -16242.768   -72216.249 
    1100   -72216.252       246.69    359.38173       4.1115   -10154.744   -14206.299    -9.876185   -16248.059   -72216.252 
    1110   -72216.254       246.69    359.37863       4.1115   -10148.343    -14201.29  -0.79419559   -16242.945   -72216.254 
    1120   -72216.257       246.69    359.37814       4.1115   -10147.588   -14200.815   0.60330904   -16242.552   -72216.257 
    1130   -72216.259       246.69    359.38097       4.1115   -10153.936   -14205.378    -9.036506   -16247.395   -72216.259 
    1140   -72216.261       246.69    359.37817       4.1115     -10148.1   -14200.774  -0.78983754   -16242.737   -72216.261 
    1150   -72216.263       246.69    359.37771       4.1115   -10147.366   -14200.289   0.54549917   -16242.356   -72216.263 
    1160   -72216.266       246.69    359.38035       4.1115    -10153.23    -14204.47   -8.3808719    -16246.84   -72216.266 
    1170   -72216.268       246.69    359.37775       4.1115   -10147.791   -14200.158  -0.70893683   -16242.507   -72216.268 
    1180   -72216.269       246.69    359.37735       4.1115   -10147.136   -14199.712   0.48288748   -16242.179   -72216.269 
    1190   -72216.271       246.69    359.37978       4.1115   -10152.489   -14203.507   -7.6810029   -16246.277   -72216.271 
    1200   -72216.273       246.69    359.37736       4.1115   -10147.396   -14199.456  -0.50008605   -16242.233   -72216.273 
    1210   -72216.274       246.69    359.37706       4.1115    -10146.92   -14199.126   0.40054837   -16242.034   -72216.274 
    1220   -72216.276       246.69    359.37937       4.1115   -10151.972   -14202.699    -7.300542   -16245.915   -72216.276 
    1230   -72216.277       246.69    359.38006       4.1115   -10153.566   -14203.823   -9.6463663   -16247.227   -72216.277 
    1240   -72216.278       246.69    359.38289       4.1115   -10159.727   -14208.279   -18.885093   -16252.016   -72216.278 
    1250   -72216.279       246.69    359.38495       4.1115    -10164.28   -14211.426   -25.819762   -16255.594   -72216.279 
    1260   -72216.294       246.69     359.3928       4.1115   -10182.158   -14221.616   -54.841042   -16270.017   -72216.294 
    1270   -72216.297       246.69    359.37501       4.1115   -10144.622   -14190.958  -0.93409403   -16241.972   -72216.297 
    1280   -72216.297       246.69     359.3742       4.1115   -10142.942   -14189.081    1.0251019   -16240.769   -72216.297 
    1290   -72216.303       246.69    359.37244       4.1115   -10139.504   -14185.829    4.9077641    -16237.59   -72216.303 
    1300   -72216.307       246.69    359.37404       4.1115   -10142.828   -14187.609   0.32320934   -16241.197   -72216.307 
    1310   -72216.309       246.69    359.37573       4.1115   -10146.584   -14190.061   -5.8336246   -16243.859   -72216.309 
    1320   -72216.309       246.69    359.37123       4.1115   -10137.061   -14182.775    8.2115377   -16236.618   -72216.309 
    1330   -72216.313       246.69    359.37448       4.1115   -10143.901   -14186.815   -3.0552763   -16241.833   -72216.313 
    1340   -72216.315       246.69    359.37641       4.1115    -10147.87   -14188.907   -9.8030445   -16244.898   -72216.315 
    1350   -72216.326       246.69    359.36921       4.1115   -10132.174    -14174.11    10.496681   -16232.909   -72216.326 
    1360   -72216.367       246.69    359.36995       4.1115   -10134.813   -14169.026  -0.43928442   -16234.973   -72216.367 
    1370   -72216.382       246.69    359.36867       4.1115   -10132.443   -14166.169    1.3899067   -16232.549   -72216.382 
    1380   -72216.402       246.69    359.37448       4.1115   -10145.417    -14174.27   -19.674729   -16242.306   -72216.402 
    1390   -72216.421       246.69    359.36799       4.1115   -10132.196   -14163.729  -0.22710961   -16232.632   -72216.421 
    1400   -72216.443       246.69    359.36554       4.1115   -10127.379   -14157.931    3.9909312   -16228.197   -72216.443 
    1410   -72216.537       246.69    359.36787       4.1115   -10135.273   -14158.645   -12.748905   -16234.426   -72216.537 
    1420   -72216.641       246.69    359.36125       4.1115   -10123.985   -14144.488  -0.17513599    -16227.29   -72216.641 
    1430   -72216.686       246.69    359.37158       4.1115   -10147.144   -14160.483   -35.811463   -16245.138   -72216.686 
    1440   -72216.703       246.69    359.36021       4.1115   -10122.875   -14141.201   -1.3829921   -16226.041   -72216.703 
    1450   -72216.717       246.69    359.35873       4.1115   -10120.122   -14138.861      3.02234   -16224.529   -72216.717 
    1460   -72216.735       246.69    359.36701       4.1115   -10137.949   -14151.016    -24.57367   -16238.257   -72216.735 
    1470   -72216.747       246.69     359.3593       4.1115   -10121.254   -14137.315   -1.3484908   -16225.099   -72216.747 
    1480    -72216.76       246.69      359.358       4.1115     -10118.6   -14134.921    2.7798534   -16223.659    -72216.76 
    1490   -72216.776       246.69    359.36531       4.1115   -10133.988   -14144.971   -21.338164   -16235.654   -72216.776 
    1500   -72216.788       246.69    359.35853       4.1115   -10119.081   -14132.402  -0.80222244   -16224.038   -72216.788 
    1510   -72216.798       246.69    359.35764       4.1115   -10117.222   -14130.593    2.2051772   -16223.277   -72216.798 
    1520   -72216.811       246.69    359.36409       4.1115   -10130.791    -14139.51   -18.859471   -16234.003   -72216.811 
    1530   -72216.819       246.69    359.35834       4.1115   -10118.194    -14129.03    -1.256262   -16224.296   -72216.819 
    1540   -72216.825       246.69    359.35764       4.1115   -10116.787   -14127.744    1.1705259   -16223.789   -72216.825 
    1550   -72216.833       246.69    359.36229       4.1115   -10126.659   -14134.308   -14.026262   -16231.642   -72216.833 
    1560   -72216.838       246.69    359.35812       4.1115   -10117.585   -14126.796   -1.3223826   -16224.638   -72216.838 
    1570   -72216.843       246.69     359.3575       4.1115   -10116.367   -14125.781    0.8307034    -16224.15   -72216.843 
    1580   -72216.848       246.69    359.36111       4.1115   -10124.076    -14130.99   -10.969275   -16230.268   -72216.848 
    1590   -72216.851       246.69    359.35789       4.1115   -10117.111   -14125.246    -1.225159   -16224.862   -72216.851 
    1600   -72216.854       246.69    359.35734       4.1115    -10116.05   -14124.402    0.6652919   -16224.413   -72216.854 
    1610   -72216.858       246.69    359.36037       4.1115   -10122.541   -14128.829   -9.2423138   -16229.552   -72216.858 
    1620   -72216.861       246.69    359.35768       4.1115   -10116.723   -14124.043   -1.1052727   -16225.022   -72216.861 
    1630   -72216.863       246.69    359.35719       4.1115   -10115.782   -14123.307   0.57594539   -16224.616   -72216.863 
    1640   -72216.866       246.69    359.35987       4.1115   -10121.541   -14127.255   -8.1989022    -16229.17   -72216.866 
    1650   -72216.868       246.69    359.35746       4.1115   -10116.335   -14122.989  -0.90406784   -16225.113   -72216.868 
    1660    -72216.87       246.69    359.35707       4.1115   -10115.577   -14122.398   0.47968924   -16224.812    -72216.87 
    1670   -72216.873       246.69    359.35969       4.1115   -10121.204   -14126.296   -8.0680489   -16229.247   -72216.873 
    1680   -72216.874       246.69    359.35732       4.1115   -10116.094   -14122.157  -0.86181857   -16225.264   -72216.874 
    1690   -72216.876       246.69    359.35696       4.1115   -10115.398   -14121.605   0.39529147   -16224.985   -72216.876 
    1700   -72216.878       246.69    359.35952       4.1115   -10120.882   -14125.416   -7.9261998   -16229.305   -72216.878 
    1710   -72216.879       246.69     359.3571       4.1115   -10115.671   -14121.241  -0.51978371   -16225.253   -72216.879 
    1720   -72216.881       246.69    359.35605       4.1115   -10113.498    -14119.61    2.9289337   -16223.814   -72216.881 
    1730   -72216.882       246.69    359.35925       4.1115   -10120.371   -14124.475   -7.4548485   -16229.184   -72216.882 
    1740   -72216.884       246.69    359.35697       4.1115   -10115.449   -14120.542  -0.44978301   -16225.355   -72216.884 
    1750   -72216.885       246.69    359.35676       4.1115   -10115.077   -14120.255   0.32272866     -16225.3   -72216.885 
    1760   -72216.886       246.69    359.35682       4.1115   -10115.245   -14120.283   0.11258593   -16225.563   -72216.886 
    1770   -72216.919       246.69     359.3529       4.1115   -10107.716    -14106.44    6.7555988   -16223.464   -72216.919 
    1780   -72216.922       246.69    359.35722       4.1115   -10117.262   -14114.045   -7.2084199   -16230.533   -72216.922 
    1790   -72216.923       246.69    359.35498       4.1115   -10112.512    -14110.57  -0.22076088   -16226.746   -72216.923 
    1800   -72216.924       246.69    359.35484       4.1115   -10112.297   -14110.516   0.25618604   -16226.632   -72216.924 
    1810   -72216.925       246.69    359.35636       4.1115   -10115.628   -14113.045    -4.693152   -16229.145   -72216.925 
    1820   -72216.925       246.69    359.35491       4.1115   -10112.538   -14110.745  -0.18403533   -16226.686   -72216.925 
    1830   -72216.926       246.69    359.35485       4.1115   -10112.496   -14110.787  0.016173794   -16226.716   -72216.926 
    1840   -72216.933       246.69    359.35434       4.1115   -10112.969   -14111.612   -1.3484036   -16225.948   -72216.933 
    1850   -72216.934       246.69    359.35826       4.1115   -10122.123   -14118.822   -14.451281   -16233.096   -72216.934 
    1860   -72216.935       246.69    359.35622       4.1115   -10117.784   -14115.489   -8.0237038   -16229.839   -72216.935 
    1870   -72216.937       246.69    359.35655       4.1115   -10118.509   -14115.814   -9.1785271   -16230.535   -72216.937 
    1880   -72216.944       246.69    359.35044       4.1115    -10105.05   -14102.899     9.155697   -16221.407   -72216.944 
    1890   -72216.944       246.69    359.35331       4.1115   -10111.177   -14107.404   0.12267625   -16226.251   -72216.944 
    1900   -72216.945       246.69    359.35318       4.1115   -10110.894   -14107.131   0.53771711   -16226.089   -72216.945 
    1910   -72216.945       246.69     359.3533       4.1115   -10111.132   -14107.219   0.22751115   -16226.405   -72216.945 
    1920   -72216.945       246.69    359.35333       4.1115    -10111.17    -14107.09  0.026874427   -16226.446   -72216.945 
    1930   -72216.948       246.69    359.35321       4.1115    -10110.73   -14105.682  0.023153661   -16226.531   -72216.948 
    1940   -72216.949       246.69    359.35312       4.1115   -10110.671     -14105.4  0.059558841   -16226.672   -72216.949 
    1950   -72216.949       246.69    359.35354       4.1115   -10111.561   -14106.014   -1.2185419    -16227.45   -72216.949 
    1960   -72216.949       246.69    359.35073       4.1115   -10105.516   -14101.181    7.4629626   -16222.829   -72216.949 
    1970    -72216.95       246.69    359.35304       4.1115   -10110.449   -14104.788   0.11261675    -16226.67    -72216.95 
    1980    -72216.95       246.69    359.35305       4.1115   -10110.466   -14104.765  0.074836305   -16226.708    -72216.95 
    1990    -72216.95       246.69    359.35239       4.1115   -10109.092   -14103.706    2.2197927   -16225.789    -72216.95 
    2000    -72216.95       246.69    359.35326       4.1115   -10110.983     -14104.9   -0.5865574   -16227.464    -72216.95 
    2010   -72216.958       246.69     359.3517       4.1115   -10107.804   -14098.819    1.6636145   -16226.257   -72216.958 
    2020   -72216.959       246.69    359.35291       4.1115   -10110.418   -14100.822   -2.2676287   -16228.164   -72216.959 
    2030   -72216.959       246.69    359.35159       4.1115   -10107.588    -14098.74    1.9662568    -16225.99   -72216.959 
    2040   -72216.959       246.69    359.35545       4.1115   -10115.881   -14105.071   -10.243077   -16232.328   -72216.959 
    2050    -72216.96       246.69    359.35167       4.1115   -10107.882   -14099.092    1.4723449   -16226.026    -72216.96 
    2060    -72216.96       246.69    359.35212       4.1115   -10108.907   -14099.836  -0.10138534   -16226.782    -72216.96 
    2070    -72216.96       246.69    359.35212       4.1115   -10108.916    -14099.88 -0.071469677   -16226.797    -72216.96 
    2080    -72216.96       246.69     359.3521       4.1115   -10108.903   -14099.904   0.01071199   -16226.815    -72216.96 
    2090   -72216.961       246.69    359.35198       4.1115   -10108.646   -14099.697   0.36570508   -16226.608   -72216.961 
    2100   -72216.965       246.69    359.35002       4.1115   -10105.727   -14096.588    3.6449021   -16224.236   -72216.965 
    2110   -72216.969       246.69    359.35114       4.1115    -10108.31   -14098.345  -0.65005873   -16225.936   -72216.969 
    2120   -72216.969       246.69     359.3509       4.1115   -10107.735     -14097.7   0.08604529   -16225.591   -72216.969 
    2130   -72216.969       246.69    359.35107       4.1115   -10108.125   -14097.931  -0.37501718   -16226.068   -72216.969 
    2140    -72216.97       246.69    359.35077       4.1115   -10107.291   -14096.441   0.20319553   -16225.634    -72216.97 
    2150   -72216.972       246.69    359.35101       4.1115   -10107.563   -14094.884  -0.61632536    -16227.19   -72216.972 
    2160   -72216.972       246.69    359.35032       4.1115   -10106.088   -14093.743    1.6309256   -16226.152   -72216.972 
    2170   -72216.972       246.69    359.35063       4.1115    -10106.74   -14094.198   0.66543742   -16226.688   -72216.972 
    2180   -72216.972       246.69    359.35047       4.1115   -10106.389   -14093.893    1.1562457   -16226.432   -72216.972 
    2190   -72216.973       246.69    359.35084       4.1115    -10107.15   -14094.388 -0.070090687   -16226.991   -72216.973 
    2200   -72216.973       246.69    359.35083       4.1115   -10107.126   -14094.321 -0.030834242   -16227.026   -72216.973 
    2210   -72216.973       246.69     359.3508       4.1115   -10107.041   -14094.192   0.01546952   -16226.946   -72216.973 
    2220   -72216.973       246.69     359.3506       4.1115   -10106.626   -14093.841   0.66117277   -16226.699   -72216.973 
    2230   -72216.973       246.69     359.3504       4.1115   -10106.166   -14093.383    1.2959572   -16226.411   -72216.973 
    2240   -72216.973       246.69    359.35079       4.1115   -10106.972   -14093.866 -0.018525036   -16227.032   -72216.973 
    2250   -72216.975       246.69    359.35084       4.1115   -10106.902   -14092.546  -0.48669818   -16227.674   -72216.975 
    2260   -72216.975       246.69    359.35089       4.1115    -10107.03   -14092.688  -0.56658141   -16227.834   -72216.975 
    2270   -72216.975       246.69    359.35113       4.1115   -10107.531   -14093.034   -1.3497405   -16228.208   -72216.975 
    2280   -72216.976       246.69    359.35062       4.1115   -10106.467   -14092.174   0.21826582   -16227.446   -72216.976 
    2290   -72216.976       246.69    359.35066       4.1115   -10106.523   -14092.136  0.001323806   -16227.433   -72216.976 
    2300   -72216.976       246.69    359.35063       4.1115    -10106.46   -14092.098   0.14342058   -16227.425   -72216.976 
    2310   -72216.976       246.69     359.3508       4.1115   -10106.828   -14092.365  -0.39863835   -16227.721   -72216.976 
    2320   -72216.976       246.69    359.35071       4.1115   -10106.628   -14092.185  -0.15747425   -16227.541   -72216.976 
    2330   -72216.977       246.69    359.35078       4.1115   -10106.795    -14091.99  -0.61756952   -16227.778   -72216.977 
    2340   -72216.979       246.69     359.3502       4.1115   -10105.816   -14090.439   0.67479146   -16227.685   -72216.979 
    2350   -72216.984       246.69    359.35062       4.1115   -10106.789   -14089.685   -2.1258153   -16228.555   -72216.984 
    2360   -72216.985       246.69    359.34614       4.1115    -10097.24    -14082.43    11.898509   -16221.189   -72216.985 
    2370   -72216.985       246.69    359.35061       4.1115   -10106.787   -14089.446   -2.4173871   -16228.498   -72216.985 
    2380   -72216.985       246.69     359.3535       4.1115    -10113.04   -14094.149   -11.703067   -16233.269   -72216.985 
    2390   -72216.985       246.69    359.34986       4.1115   -10105.223    -14088.35 -0.075263876   -16227.245   -72216.985 
    2400   -72216.985       246.69    359.34986       4.1115   -10105.262   -14088.401 -0.049501534   -16227.334   -72216.985 
    2410   -72216.985       246.69    359.34975       4.1115   -10105.002   -14088.213   0.30925625   -16227.101   -72216.985 
    2420   -72216.986       246.69    359.34974       4.1115   -10105.074   -14088.502   0.37480274   -16227.094   -72216.986 
    2430   -72216.987       246.69    359.34963       4.1115   -10104.853   -14088.272   0.62263467    -16226.91   -72216.987 
    2440   -72216.987       246.69    359.34949       4.1115   -10104.594   -14088.079    1.1027558   -16226.807   -72216.987 
    2450   -72216.987       246.69    359.34978       4.1115   -10105.247   -14088.236  -0.13225182   -16227.372   -72216.987 
    2460   -72216.988       246.69    359.34962       4.1115   -10104.896   -14087.984   0.32191749   -16227.027   -72216.988 
    2470   -72216.988       246.69    359.34968       4.1115   -10105.058   -14088.181   0.22607485    -16227.22   -72216.988 
    2480   -72216.988       246.69    359.34981       4.1115   -10105.353   -14088.464 -0.096757188   -16227.498   -72216.988 
    2490   -72216.988       246.69    359.34982       4.1115   -10105.396   -14088.524  -0.11393797    -16227.55   -72216.988 
    2500   -72216.988       246.69    359.34988       4.1115   -10105.527    -14088.65  -0.26559751   -16227.667   -72216.988 
    2510   -72216.988       246.69    359.34956       4.1115   -10104.857   -14088.194   0.79391867   -16227.171   -72216.988 
    2520   -72216.989       246.69     359.3504       4.1115   -10106.683    -14089.36   -2.0386283    -16228.65   -72216.989 
    2523   -72216.989       246.69    359.35167       4.1115   -10109.404   -14091.359    -6.095795   -16230.758   -72216.989 
Loop time of 43.3715 on 8 procs for 2523 steps with 21558 atoms

99.0% CPU use with 8 MPI tasks x no OpenMP threads

Minimization stats:
  Stopping criterion = max force evaluations
  Energy initial, next-to-last, final = 
     -72106.3937114927  -72216.9889328002  -72216.9889397848
  Force two-norm initial, final = 7392.0094 1.4338794
  Force max component initial, final = 7392.0094 1.4279554
  Final line search alpha, max atom move = 0.066441098 0.094874923
  Iterations, force evaluations = 2523 5000

MPI task timing breakdown:
Section |  min time  |  avg time  |  max time  |%varavg| %total
---------------------------------------------------------------
Pair    | 38.613     | 39.126     | 39.561     |   5.2 | 90.21
Neigh   | 0.11418    | 0.11795    | 0.12737    |   1.2 |  0.27
Comm    | 1.3606     | 1.7019     | 2.149      |  21.5 |  3.92
Output  | 0.034375   | 0.036018   | 0.046794   |   2.1 |  0.08
Modify  | 0          | 0          | 0          |   0.0 |  0.00
Other   |            | 2.389      |            |       |  5.51

Nlocal:        2694.75 ave        2708 max        2681 min
Histogram: 2 1 0 0 0 0 2 0 2 1
Nghost:        17160.8 ave       17247 max       17052 min
Histogram: 1 0 1 2 0 0 1 0 1 2
Neighs:         187527 ave      188421 max      186166 min
Histogram: 2 0 0 0 1 0 1 0 2 2
FullNghs:       374142 ave      376023 max      371560 min
Histogram: 1 0 1 0 0 2 2 0 0 2

Total # of neighbors = 2993136
Ave neighs/atom = 138.84108
Neighbor list builds = 18
Dangerous builds = 0

# ---------- Calculate GB Energy ---------------------
variable minimumenergy equal -3.360000
variable esum equal "v_minimumenergy * count(all)"
variable xseng equal "c_eatoms - (v_minimumenergy * count(all))"
variable gbarea equal "lx * lz * 2"
variable gbe equal "(c_eatoms - (v_minimumenergy * count(all)))/v_gbarea"
variable gbemJm2 equal ${gbe}*16021.7733
variable gbemJm2 equal 0.107413180657573*16021.7733
variable gbernd equal round(${gbemJm2})
variable gbernd equal round(1720.94962992758)
print "GB energy is ${gbemJm2} mJ/m^2"
GB energy is 1720.94962992758 mJ/m^2

# ---------- Dump data into Data file -------------
reset_timestep 0
dump 		1 all cfg 10000 dump.setup.*.cfg mass type xs ys zs c_csym c_eng fx fy fz
dump_modify     1 element Al Al
minimize 1e-15 1e-15 5000 5000
WARNING: Using 'neigh_modify every 1 delay 0 check yes' setting during minimization (../min.cpp:187)
Per MPI rank memory allocation (min/avg/max) = 14.05 | 14.05 | 14.05 Mbytes
Step PotEng Lx Ly Lz Press Pxx Pyy Pzz c_eatoms 
       0   -72216.989       246.69    359.35167       4.1115   -10109.404   -14091.359    -6.095795   -16230.758   -72216.989 
      10    -72216.99       246.69    359.34977       4.1115   -10105.354   -14088.372   -0.1367525   -16227.554    -72216.99 
      20    -72216.99       246.69     359.3498       4.1115   -10105.457    -14088.53  -0.20094152   -16227.641    -72216.99 
      30    -72216.99       246.69    359.35113       4.1115   -10108.263    -14090.43   -4.7666317   -16229.593    -72216.99 
      40   -72216.991       246.69    359.34968       4.1115   -10105.182   -14088.196  -0.02188077   -16227.328   -72216.991 
      50   -72216.991       246.69    359.34964       4.1115   -10105.105   -14088.138  0.087492594   -16227.265   -72216.991 
      60   -72216.991       246.69    359.34944       4.1115   -10104.687   -14087.846   0.73679872   -16226.951   -72216.991 
      70   -72216.991       246.69    359.34961       4.1115   -10105.156   -14088.257   0.13634153   -16227.348   -72216.991 
      80   -72216.992       246.69    359.34955       4.1115   -10105.146   -14088.198  0.039679932   -16227.281   -72216.992 
      90   -72216.993       246.69    359.34953       4.1115   -10105.064   -14088.032  0.017177293   -16227.176   -72216.993 
     100   -72216.993       246.69     359.3495       4.1115   -10105.029   -14087.999  0.098264071   -16227.184   -72216.993 
     110   -72216.993       246.69    359.34996       4.1115   -10106.043   -14088.745    -1.380246   -16228.003   -72216.993 
     120   -72216.994       246.69    359.34939       4.1115   -10105.051   -14087.987  -0.02967794   -16227.136   -72216.994 
     130   -72216.994       246.69    359.34937       4.1115   -10105.051    -14087.99 -0.053369094    -16227.11   -72216.994 
     140   -72216.994       246.69    359.34942       4.1115   -10105.212   -14088.141  -0.21991093   -16227.275   -72216.994 
     150   -72216.994       246.69    359.34928       4.1115   -10105.018   -14088.001  0.084009232   -16227.136   -72216.994 
     160   -72216.994       246.69    359.34925       4.1115   -10105.001   -14087.925 -0.023820889   -16227.054   -72216.994 
     170   -72216.995       246.69    359.34923       4.1115    -10104.96   -14087.833 -0.051711628   -16226.995   -72216.995 
     180   -72216.995       246.69    359.34925       4.1115   -10105.019   -14087.903 -0.092960716   -16227.061   -72216.995 
     190   -72216.995       246.69    359.34986       4.1115   -10106.353   -14088.908   -2.0573354   -16228.093   -72216.995 
     200   -72216.995       246.69    359.34922       4.1115    -10105.05   -14087.879  -0.29227975   -16226.979   -72216.995 
     210   -72216.996       246.69    359.35107       4.1115   -10109.977   -14091.728   -7.3312843   -16230.871   -72216.996 
     220   -72216.999       246.69    359.35476       4.1115   -10118.017   -14097.451   -19.848717   -16236.752   -72216.999 
     230   -72217.001       246.69    359.34853       4.1115   -10104.804   -14087.465  -0.53347717   -16226.412   -72217.001 
     240   -72217.002       246.69    359.35035       4.1115   -10108.791   -14090.411   -6.5268335   -16229.435   -72217.002 
     250   -72217.002       246.69    359.34887       4.1115   -10105.865   -14088.366   -1.8595548   -16227.368   -72217.002 
     260   -72217.005       246.69    359.34782       4.1115   -10103.655   -14086.468   0.83383551   -16225.332   -72217.005 
     270   -72217.006       246.69     359.3509       4.1115   -10110.337   -14091.359   -9.2289456   -16230.423   -72217.006 
     280   -72217.007       246.69    359.34806       4.1115   -10104.357    -14086.98  -0.13490978   -16225.956   -72217.007 
     290   -72217.008       246.69    359.34834       4.1115    -10105.09   -14087.519   -1.0994728   -16226.651   -72217.008 
     300   -72217.011       246.69    359.34783       4.1115   -10103.937   -14086.352  0.050437846    -16225.51   -72217.011 
     310   -72217.012       246.69    359.33135       4.1115   -10068.799   -14060.293    52.781004   -16198.885   -72217.012 
     320   -72217.019       246.69    359.34782       4.1115   -10103.319   -14084.603  -0.18517874    -16225.17   -72217.019 
     330    -72217.02       246.69    359.34776       4.1115   -10103.226   -14084.475 -0.052000684   -16225.151    -72217.02 
     340    -72217.02       246.69    359.34953       4.1115   -10107.048   -14087.318   -5.5362014   -16228.288    -72217.02 
     350    -72217.02       246.69    359.34789       4.1115   -10103.536   -14084.711  -0.22687005   -16225.669    -72217.02 
     360    -72217.02       246.69    359.34808       4.1115   -10103.918   -14084.938  -0.76785894   -16226.049    -72217.02 
     370   -72217.021       246.69    359.34759       4.1115   -10102.753   -14083.823    0.7845529    -16225.22   -72217.021 
     380   -72217.021       246.69    359.34672       4.1115   -10100.819    -14082.27    3.4985613   -16223.686   -72217.021 
     390   -72217.021       246.69    359.34777       4.1115   -10103.166   -14084.167  0.072943644   -16225.403   -72217.021 
     400   -72217.021       246.69    359.34783       4.1115   -10103.328   -14084.345 -0.085107064   -16225.555   -72217.021 
     410   -72217.021       246.69    359.34779       4.1115   -10103.207   -14084.215 0.0018021403   -16225.407   -72217.021 
     420   -72217.022       246.69    359.34807       4.1115   -10103.772   -14084.576  -0.89438876   -16225.847   -72217.022 
     430   -72217.022       246.69    359.34763       4.1115   -10102.827   -14083.867   0.52006748   -16225.136   -72217.022 
     440   -72217.022       246.69    359.34867       4.1115   -10105.048   -14085.495   -2.8041111   -16226.847   -72217.022 
     450   -72217.022       246.69    359.34732       4.1115   -10102.162    -14083.37    1.5826992   -16224.699   -72217.022 
     460   -72217.025       246.69    359.34775       4.1115   -10102.936   -14083.418   0.11811622   -16225.508   -72217.025 
     470   -72217.027       246.69    359.34762       4.1115   -10102.433   -14082.114  0.027775978   -16225.213   -72217.027 
     480   -72217.027       246.69    359.34759       4.1115   -10102.609   -14082.233 -0.087413749   -16225.507   -72217.027 
     490   -72217.028       246.69    359.34828       4.1115   -10104.167   -14083.262   -2.7342078   -16226.503   -72217.028 
     500   -72217.028       246.69    359.34752       4.1115   -10102.462   -14082.159 -0.094166535   -16225.133   -72217.028 
     510   -72217.028       246.69    359.34755       4.1115   -10102.513    -14082.19  -0.17766423   -16225.172   -72217.028 
     520   -72217.028       246.69    359.34757       4.1115   -10102.579   -14082.231   -0.2831885   -16225.223   -72217.028 
     530   -72217.028       246.69    359.34764       4.1115   -10102.725   -14082.329  -0.50935964   -16225.336   -72217.028 
     540   -72217.028       246.69      359.348       4.1115   -10103.527   -14082.904   -1.7157855   -16225.961   -72217.028 
     550   -72217.029       246.69    359.34742       4.1115   -10102.266   -14082.024   0.21567301    -16224.99   -72217.029 
     560   -72217.029       246.69    359.34753       4.1115   -10102.486   -14082.357 -0.041606706    -16225.06   -72217.029 
     570    -72217.03       246.69    359.34733       4.1115   -10102.203   -14082.013   0.25833541   -16224.855    -72217.03 
     580    -72217.03       246.69    359.34738       4.1115   -10102.523   -14082.312  -0.12703461    -16225.13    -72217.03 
     590    -72217.03       246.69    359.34738       4.1115   -10102.603   -14082.403  -0.22412529   -16225.183    -72217.03 
     600    -72217.03       246.69    359.34841       4.1115   -10104.791   -14083.991   -3.5526513   -16226.829    -72217.03 
     610    -72217.03       246.69     359.3473       4.1115   -10102.366   -14082.142  0.001853019   -16224.958    -72217.03 
     620   -72217.031       246.69    359.34729       4.1115    -10102.24   -14081.804  0.037921282   -16224.954   -72217.031 
     630   -72217.031       246.69    359.34816       4.1115   -10104.138   -14083.204   -2.8566154   -16226.354   -72217.031 
     640   -72217.032       246.69     359.3472       4.1115     -10102.2   -14081.806 0.0099326716   -16224.804   -72217.032 
     650   -72217.032       246.69    359.34725       4.1115   -10102.331   -14081.922  -0.10350776   -16224.969   -72217.032 
     660   -72217.032       246.69    359.34717       4.1115   -10102.147   -14081.741   0.09207734   -16224.792   -72217.032 
     670   -72217.032       246.69    359.34715       4.1115   -10102.211   -14081.775  0.037771432   -16224.895   -72217.032 
     680   -72217.032       246.69    359.34715       4.1115   -10102.226   -14081.751 -0.059330259   -16224.867   -72217.032 
     690   -72217.033       246.69    359.34623       4.1115   -10100.223   -14080.245    2.8671042   -16223.291   -72217.033 
     700   -72217.033       246.69    359.34714       4.1115   -10102.196    -14081.73 0.0091714373   -16224.869   -72217.033 
     710   -72217.036       246.69    359.34651       4.1115   -10100.446   -14079.208    1.0952634   -16223.225   -72217.036 
     720   -72217.038       246.69    359.34753       4.1115   -10102.951   -14081.236    -2.382035   -16225.236   -72217.038 
     730    -72217.04       246.69    359.34665       4.1115   -10101.425   -14080.262 -0.053176776   -16223.961    -72217.04 
     740    -72217.04       246.69    359.34706       4.1115   -10102.225   -14080.778   -1.3878726   -16224.508    -72217.04 
     750    -72217.04       246.69    359.34661       4.1115   -10101.258   -14080.063  0.049991758   -16223.761    -72217.04 
     760    -72217.04       246.69    359.34687       4.1115   -10101.853   -14080.525  -0.74871717   -16224.286    -72217.04 
     770    -72217.04       246.69    359.34679       4.1115   -10101.708   -14080.412  -0.49910842   -16224.213    -72217.04 
     780    -72217.04       246.69    359.34683       4.1115   -10101.818   -14080.457  -0.66018428   -16224.336    -72217.04 
     790    -72217.04       246.69    359.34697       4.1115   -10102.152   -14080.637   -1.2201006   -16224.598    -72217.04 
     800    -72217.04       246.69    359.34659       4.1115   -10101.296   -14080.034  0.047764468   -16223.901    -72217.04 
     810   -72217.041       246.69    359.34662       4.1115   -10101.371   -14080.116 -0.048229503   -16223.948   -72217.041 
     820   -72217.041       246.69    359.34663       4.1115   -10101.384   -14080.147 -0.041267773   -16223.965   -72217.041 
     830   -72217.041       246.69    359.34665       4.1115   -10101.436   -14080.202  -0.10412913   -16224.002   -72217.041 
     840   -72217.041       246.69     359.3467       4.1115   -10101.547   -14080.298  -0.26576453   -16224.077   -72217.041 
     850   -72217.041       246.69    359.34723       4.1115   -10102.659   -14081.088   -1.9973309   -16224.892   -72217.041 
     860   -72217.041       246.69     359.3463       4.1115   -10100.669   -14079.538   0.90902194   -16223.379   -72217.041 
     870   -72217.041       246.69    359.34659       4.1115   -10101.303   -14080.033 -0.017710125   -16223.859   -72217.041 
     880   -72217.041       246.69    359.34688       4.1115   -10101.859   -14080.391   -1.0357231   -16224.149   -72217.041 
     890   -72217.042       246.69    359.34651       4.1115   -10101.135   -14079.744  0.029024523   -16223.688   -72217.042 
     900   -72217.042       246.69     359.3465       4.1115   -10101.165   -14079.758  -0.01461926   -16223.721   -72217.042 
     910   -72217.042       246.69    359.34651       4.1115   -10101.188   -14079.779 -0.052203985   -16223.734   -72217.042 
     920   -72217.042       246.69    359.34652       4.1115   -10101.207   -14079.796 -0.080348362   -16223.744   -72217.042 
     930   -72217.042       246.69    359.34654       4.1115   -10101.232   -14079.818  -0.11925635   -16223.759   -72217.042 
     940   -72217.042       246.69    359.34657       4.1115   -10101.294   -14079.867  -0.21137659   -16223.802   -72217.042 
     950   -72217.042       246.69    359.34646       4.1115   -10101.057   -14079.713   0.15378349   -16223.612   -72217.042 
     960   -72217.043       246.69    359.34648       4.1115   -10101.082   -14079.688  0.079826778   -16223.639   -72217.043 
     970   -72217.045       246.69     359.3459       4.1115   -10100.345   -14078.695   0.51525696   -16222.854   -72217.045 
     980   -72217.047       246.69    359.34612       4.1115   -10100.874   -14078.945   -0.3952093   -16223.283   -72217.047 
     990   -72217.047       246.69    359.34576       4.1115   -10100.184   -14078.535   0.90147244   -16222.919   -72217.047 
    1000   -72217.047       246.69    359.34613       4.1115   -10100.991   -14078.979  -0.47932645   -16223.514   -72217.047 
    1010   -72217.047       246.69    359.34599       4.1115   -10100.679   -14078.789  0.048477578   -16223.296   -72217.047 
    1020   -72217.047       246.69    359.34606       4.1115   -10100.741   -14078.861 -0.007564755   -16223.354   -72217.047 
    1030   -72217.048       246.69      359.346       4.1115   -10100.583   -14078.574  0.010301414   -16223.186   -72217.048 
    1040   -72217.049       246.69    359.34628       4.1115   -10100.974   -14078.605  -0.69931392   -16223.617   -72217.049 
    1050   -72217.049       246.69    359.34637       4.1115   -10101.192   -14078.773   -1.0455581   -16223.757   -72217.049 
    1060   -72217.049       246.69    359.34612       4.1115   -10100.655   -14078.392  -0.25473913    -16223.32   -72217.049 
    1070   -72217.049       246.69    359.34581       4.1115   -10100.008   -14077.836   0.63827112   -16222.825   -72217.049 
    1080   -72217.049       246.69    359.34604       4.1115   -10100.505   -14078.292  0.016669536   -16223.239   -72217.049 
    1090    -72217.05       246.69    359.34656       4.1115   -10101.619    -14079.02   -1.7748165   -16224.063    -72217.05 
    1100    -72217.05       246.69    359.34602       4.1115   -10100.468   -14078.191 -0.014072709   -16223.198    -72217.05 
    1110    -72217.05       246.69    359.34603       4.1115   -10100.494   -14078.215 -0.046759369   -16223.221    -72217.05 
    1120    -72217.05       246.69    359.34602       4.1115   -10100.472   -14078.223    0.0324345   -16223.224    -72217.05 
    1130    -72217.05       246.69    359.34609       4.1115   -10100.627   -14078.373  -0.13636847   -16223.371    -72217.05 
    1133    -72217.05       246.69      359.346       4.1115   -10100.423    -14078.14  0.024285885   -16223.154    -72217.05 
Loop time of 19.5114 on 8 procs for 1133 steps with 21558 atoms

99.0% CPU use with 8 MPI tasks x no OpenMP threads

Minimization stats:
  Stopping criterion = energy tolerance
  Energy initial, next-to-last, final = 
     -72216.9889397848  -72217.0498094182  -72217.0498094182
  Force two-norm initial, final = 1.3928281 0.011349028
  Force max component initial, final = 1.3867287 0.0055247812
  Final line search alpha, max atom move = 0.056547877 0.00031241465
  Iterations, force evaluations = 1133 2265

MPI task timing breakdown:
Section |  min time  |  avg time  |  max time  |%varavg| %total
---------------------------------------------------------------
Pair    | 17.522     | 17.736     | 17.939     |   3.1 | 90.90
Neigh   | 0          | 0          | 0          |   0.0 |  0.00
Comm    | 0.51891    | 0.69272    | 0.86464    |  12.2 |  3.55
Output  | 0.015553   | 0.015989   | 0.018431   |   0.7 |  0.08
Modify  | 0          | 0          | 0          |   0.0 |  0.00
Other   |            | 1.067      |            |       |  5.47

Nlocal:        2694.75 ave        2707 max        2681 min
Histogram: 2 1 0 0 0 0 2 1 0 2
Nghost:        17156.6 ave       17244 max       17052 min
Histogram: 1 0 2 1 0 0 1 0 1 2
Neighs:         187513 ave      188236 max      186047 min
Histogram: 1 1 0 0 1 0 0 1 0 4
FullNghs:       375026 ave      376647 max      372473 min
Histogram: 1 0 1 1 0 0 0 1 3 1

Total # of neighbors = 3000212
Ave neighs/atom = 139.16931
Neighbor list builds = 0
Dangerous builds = 0
undump 1

# ----------Setup Fixed and Thermostat Regions--------------------
change_box all boundary p s p
Changing box ...
WARNING: Resetting image flags for non-periodic dimensions (../domain.cpp:1951)
region edge block -123.345 123.345 -246.69 -234.3555 0 4.1115 side in units box
group frozen region edge
415 atoms in group frozen
region bulk block -123.345 123.345 -246.69 -234.3555 0 4.1115 side out units box
group tstat region bulk
21143 atoms in group tstat
fix 2 frozen setforce 0.0 0.0 0.0
velocity all create 1800 12345 mom yes rot no
fix 3 tstat nvt temp 900 900 0.1

# ---------- Run Minimization ---------------------
reset_timestep 0
timestep 0.001
thermo 5000
thermo_style custom step time atoms temp pe ke etotal density
dump 1 all cfg 50000 dump.motion.*.cfg mass type xs ys zs
dump_modify     1 element Al Al
run 3000000
Per MPI rank memory allocation (min/avg/max) = 11.7 | 11.7 | 11.7 Mbytes
Step Time Atoms Temp PotEng KinEng TotEng Density 
       0            0    21558         1800   -72109.339    5015.6297   -67093.709     2.651333 
    5000            5    21558    922.65731   -69670.571    2570.9486   -67099.623    2.5844843 
   10000           10    21558    915.63252   -69305.934    2551.3743    -66754.56    2.5156059 
   15000           15    21558    920.26297   -69324.749    2564.2768   -66760.472    2.5161592 
   20000           20    21558    923.34492    -69643.97    2572.8646   -67071.106    2.5758378 
   25000           25    21558    917.83048   -69699.769    2557.4988   -67142.271    2.6382398 
   30000           30    21558    917.28857   -69687.846    2555.9888   -67131.857    2.5863076 
   35000           35    21558    917.76788   -69277.207    2557.3244   -66719.882    2.5080806 
   40000           40    21558    918.89462   -69321.469     2560.464   -66761.005     2.520425 
   45000           45    21558    927.67067   -69627.806    2584.9181   -67042.888    2.5756898 
   50000           50    21558    920.97505   -69686.951     2566.261    -67120.69    2.6309394 
   55000           55    21558    921.13341   -69664.606    2566.7023   -67097.904    2.5858673 
   60000           60    21558    928.23115   -69308.083    2586.4798   -66721.603    2.5104255 
   65000           65    21558     925.5732   -69338.488    2579.0736   -66759.414    2.5212668 
   70000           70    21558    917.49385   -69633.176    2556.5608   -67076.615    2.5776035 
   75000           75    21558    920.81529   -69662.927    2565.8159   -67097.111    2.6278311 
   80000           80    21558      910.471   -69667.947    2536.9919   -67130.955    2.5881296 
   85000           85    21558    916.87821   -69326.822    2554.8453   -66771.976    2.5158716 
   90000           90    21558    920.86959   -69339.534    2565.9671   -66773.567    2.5184566 
   95000           95    21558    923.98506   -69654.636    2574.6483   -67079.987     2.581382 
  100000          100    21558    921.52252   -69652.538    2567.7865   -67084.751    2.6241554 
  105000          105    21558    919.58001   -69672.558    2562.3738   -67110.184    2.5859106 
  110000          110    21558    917.16634   -69360.407    2555.6482   -66804.758    2.5198693 
  115000          115    21558     918.0031   -69364.092    2557.9798   -66806.113    2.5158111 
  120000          120    21558    920.59282   -69689.695    2565.1959   -67124.499    2.5856263 
  125000          125    21558    914.15953   -69657.281    2547.2698   -67110.011    2.6208299 
  130000          130    21558    916.06254   -69658.354    2552.5725   -67105.782    2.5825374 
  135000          135    21558    921.19383   -69379.238    2566.8706   -66812.367    2.5227791 
  140000          140    21558    925.77585    -69368.75    2579.6383   -66789.112    2.5188063 
  145000          145    21558    914.46667   -69660.478    2548.1257   -67112.352    2.5852192 
  150000          150    21558    917.63885    -69677.46    2556.9648   -67120.495     2.622889 
  155000          155    21558    913.86754   -69626.572    2546.4562   -67080.116    2.5705756 
  160000          160    21558    919.57282   -69345.167    2562.3538   -66782.813    2.5166454 
  165000          165    21558    921.20027   -69373.329    2566.8886   -66806.441    2.5188731 
  170000          170    21558    920.66061   -69674.501    2565.3848   -67109.116    2.5864406 
  175000          175    21558    916.24533   -69673.767    2553.0818   -67120.685    2.6211994 
  180000          180    21558    911.63998   -69635.441    2540.2492   -67095.192    2.5707328 
  185000          185    21558    920.04693   -69391.804    2563.6749   -66828.129    2.5226006 
  190000          190    21558    923.82766   -69393.471    2574.2097   -66819.261    2.5265247 
  195000          195    21558    911.35499   -69678.255    2539.4551     -67138.8    2.5895565 
  200000          200    21558    920.95891   -69704.682     2566.216   -67138.466    2.6190828 
  205000          205    21558    911.07891   -69647.976    2538.6858    -67109.29    2.5731906 
  210000          210    21558    913.68966   -69375.823    2545.9606   -66829.863    2.5187337 
  215000          215    21558     920.8843   -69413.509    2566.0081   -66847.501    2.5261527 
  220000          220    21558    918.33459   -69685.458    2558.9035   -67126.555     2.582678 
  225000          225    21558    916.31575   -69691.267     2553.278   -67137.989    2.6170794 
  230000          230    21558    920.27058   -69637.503     2564.298   -67073.205    2.5703232 
  235000          235    21558    913.85233    -69376.15    2546.4138   -66829.736    2.5214449 
  240000          240    21558     921.7296   -69418.469    2568.3635   -66850.105    2.5319039 
  245000          245    21558    915.81238   -69677.229    2551.8754   -67125.353    2.5856815 
  250000          250    21558    919.84954   -69677.848    2563.1248   -67114.723    2.6123716 
  255000          255    21558    918.28968   -69615.518    2558.7783    -67056.74    2.5670226 
  260000          260    21558    917.54962   -69367.354    2556.7162   -66810.638    2.5214179 
  265000          265    21558    911.95279   -69444.566    2541.1208   -66903.445    2.5352175 
  270000          270    21558    922.68543   -69669.808    2571.0269   -67098.781    2.5885135 
  275000          275    21558    909.36409   -69704.856    2533.9075   -67170.948    2.6104248 
  280000          280    21558    914.70292    -69606.96     2548.784   -67058.176    2.5714806 
  285000          285    21558    920.74035    -69381.68     2565.607   -66816.073    2.5229803 
  290000          290    21558    916.19263   -69460.841     2552.935   -66907.906    2.5352948 
  295000          295    21558    919.50168   -69669.045    2562.1555   -67106.889    2.5906808 
  300000          300    21558    917.01718   -69690.828    2555.2326   -67135.595    2.6097864 
  305000          305    21558    908.14671   -69616.019    2530.5153   -67085.504    2.5639273 
  310000          310    21558    914.15902   -69377.106    2547.2684   -66829.837    2.5251645 
  315000          315    21558    916.05134    -69487.21    2552.5413   -66934.669    2.5382197 
  320000          320    21558    912.62951   -69641.687    2543.0065   -67098.681    2.5943549 
  325000          325    21558    917.24968    -69681.53    2555.8804    -67125.65     2.609592 
  330000          330    21558    915.36505   -69585.908     2550.629   -67035.279    2.5643247 
  335000          335    21558    914.46761   -69371.281    2548.1283   -66823.153    2.5244702 
  340000          340    21558    922.36237   -69508.699    2570.1267   -66938.572    2.5391717 
  345000          345    21558    924.29279   -69664.454    2575.5057   -67088.949     2.595133 
  350000          350    21558    912.68058     -69691.6    2543.1488   -67148.451    2.6042938 
  355000          355    21558    917.29239   -69582.362    2555.9994   -67026.363    2.5601955 
  360000          360    21558    916.32865   -69415.802     2553.314   -66862.488    2.5204399 
  365000          365    21558    918.54565   -69535.962    2559.4916   -66976.471    2.5461887 
  370000          370    21558    924.99996   -69669.935    2577.4763   -67092.459    2.5984929 
  375000          375    21558    919.08487    -69702.42    2560.9941   -67141.426    2.5997047 
  380000          380    21558    919.56394    -69568.74     2562.329   -67006.411    2.5567858 
  385000          385    21558    920.63387   -69397.716    2565.3103   -66832.406    2.5268426 
  390000          390    21558    920.21359   -69524.395    2564.1392   -66960.256    2.5489895 
  395000          395    21558    916.52557   -69663.723    2553.8627    -67109.86    2.5942658 
  400000          400    21558    931.55877    -69682.87    2595.7521   -67087.118    2.6029219 
  405000          405    21558    921.28656   -69609.755     2567.129   -67042.626    2.5566926 
  410000          410    21558    923.05809   -69412.451    2572.0653   -66840.386    2.5212251 
  415000          415    21558    920.33897   -69530.663    2564.4886   -66966.174    2.5507633 
  420000          420    21558     918.0798   -69690.929    2558.1935   -67132.735     2.599023 
  425000          425    21558    918.58074   -69682.624    2559.5893   -67123.034    2.6035616 
  430000          430    21558    913.69717   -69556.079    2545.9815   -67010.097    2.5485379 
  435000          435    21558    912.72888   -69418.521    2543.2834   -66875.237    2.5300092 
  440000          440    21558    914.19331   -69511.833     2547.364   -66964.469    2.5536593 
  445000          445    21558    909.48406   -69680.339    2534.2418   -67146.097    2.6016894 
  450000          450    21558    921.63454   -69682.473    2568.0987   -67114.375    2.5956426 
  455000          455    21558    915.30027   -69527.933    2550.4485   -66977.484    2.5521104 
  460000          460    21558    922.12854   -69421.495    2569.4752    -66852.02    2.5324903 
  465000          465    21558    922.08351   -69593.522    2569.3497   -67024.172    2.5584134 
[...]
 2040000         2040    21558    918.60861   -69652.083     2559.667   -67092.416    2.5741919 
 2045000         2045    21558    916.01679   -69653.961     2552.445   -67101.516    2.5698947 
 2050000         2050    21558    921.30295   -69658.928    2567.1747   -67091.753    2.5715995 
 2055000         2055    21558    926.03485   -69666.508      2580.36   -67086.148     2.573364 
 2060000         2060    21558    925.30894   -69664.081    2578.3372   -67085.744    2.5734617 
 2065000         2065    21558    919.79387   -69633.564    2562.9697   -67070.594    2.5685848 
 2070000         2070    21558    922.09324   -69681.023    2569.3768   -67111.646    2.5724102 
 2075000         2075    21558    915.86141   -69679.926    2552.0121   -67127.914    2.5749645 
 2080000         2080    21558    914.30941    -69627.59    2547.6875   -67079.902    2.5719637 
 2085000         2085    21558    917.25005   -69655.116    2555.8814   -67099.235    2.5721238 
 2090000         2090    21558    923.60338   -69645.716    2573.5847   -67072.131    2.5696195 
 2095000         2095    21558    919.21045   -69669.354     2561.344    -67108.01    2.5722062 
 2100000         2100    21558    921.05523     -69663.3    2566.4844   -67096.815    2.5711859 
 2105000         2105    21558    918.98295   -69635.111    2560.7101   -67074.401    2.5719084 
 2110000         2110    21558    925.21257   -69659.729    2578.0687    -67081.66    2.5703572 
 2115000         2115    21558     925.0638   -69644.291    2577.6542   -67066.637    2.5657851 
 2120000         2120    21558    912.80421   -69636.257    2543.4933   -67092.763    2.5678899 
 2125000         2125    21558     906.7909   -69663.494    2526.7374   -67136.757    2.5691627 
 2130000         2130    21558     908.0335   -69637.375    2530.1999   -67107.175    2.5733138 
 2135000         2135    21558    924.89372   -69668.209    2577.1802   -67091.029     2.570067 
 2140000         2140    21558    925.75769    -69655.28    2579.5876   -67075.692    2.5714182 
 2145000         2145    21558    920.93696   -69661.527    2566.1549   -67095.372     2.574053 
 2150000         2150    21558    916.63333   -69653.443     2554.163    -67099.28    2.5727102 
 2155000         2155    21558    914.31815   -69662.807    2547.7118   -67115.095    2.5749177 
 2160000         2160    21558    920.14912   -69652.813    2563.9596   -67088.854    2.5700029 
 2165000         2165    21558    914.69765   -69660.608    2548.7693   -67111.839    2.5693977 
 2170000         2170    21558    924.76867   -69653.045    2576.8318   -67076.213    2.5680458 
 2175000         2175    21558    919.14805   -69664.659    2561.1701   -67103.489    2.5709071 
 2180000         2180    21558    915.44715   -69665.304    2550.8577   -67114.446    2.5708697 
 2185000         2185    21558    912.82211   -69647.181    2543.5432   -67103.638    2.5691681 
 2190000         2190    21558    911.42795   -69669.599    2539.6584   -67129.941    2.5724561 
 2195000         2195    21558    923.04763   -69636.564    2572.0362   -67064.527    2.5725936 
 2200000         2200    21558    912.90335   -69655.446    2543.7695   -67111.677    2.5723508 
 2205000         2205    21558    914.81173   -69677.589    2549.0872   -67128.502    2.5737889 
 2210000         2210    21558    916.41613   -69650.038    2553.5578   -67096.481    2.5714343 
 2215000         2215    21558    917.36866   -69649.115    2556.2119   -67092.903    2.5678161 
 2220000         2220    21558    917.58485    -69648.98    2556.8144   -67092.166    2.5744662 
 2225000         2225    21558    917.79785   -69672.371    2557.4079   -67114.963    2.5745208 
 2230000         2230    21558    922.33321   -69627.933    2570.0455   -67057.888    2.5719572 
 2235000         2235    21558    916.11256   -69665.686    2552.7119   -67112.974    2.5696593 
 2240000         2240    21558    923.81271   -69651.263     2574.168   -67077.095    2.5733396 
 2245000         2245    21558    920.94621   -69663.058    2566.1807   -67096.878     2.574376 
 2250000         2250    21558    921.16612   -69638.591    2566.7934   -67071.797    2.5709677 
 2255000         2255    21558    914.35665   -69663.122    2547.8191   -67115.303    2.5664424 
 2260000         2260    21558    915.99412    -69636.38    2552.3819   -67083.998    2.5629941 
 2265000         2265    21558    917.65406   -69638.029    2557.0072   -67081.022    2.5687607 
 2270000         2270    21558    908.96231   -69634.177     2532.788   -67101.389      2.57151 
 2275000         2275    21558    918.72879   -69661.978    2560.0019   -67101.976    2.5741193 
 2280000         2280    21558    921.27707   -69657.786    2567.1026   -67090.684    2.5668641 
 2285000         2285    21558     914.5309   -69674.558    2548.3046   -67126.254    2.5707346 
 2290000         2290    21558    915.69165   -69647.933     2551.539   -67096.394    2.5694759 
 2295000         2295    21558    927.39729   -69643.693    2584.1563   -67059.536    2.5731308 
 2300000         2300    21558    920.12755   -69677.318    2563.8995   -67113.418    2.5741027 
 2305000         2305    21558    915.98125   -69675.468     2552.346   -67123.122    2.5712848 
 2310000         2310    21558    914.64575   -69667.261    2548.6247   -67118.637    2.5712144 
 2315000         2315    21558     912.2218   -69643.362    2541.8704   -67101.491    2.5685432 
 2320000         2320    21558    918.66142   -69647.176    2559.8142   -67087.362    2.5748706 
 2325000         2325    21558    906.12904   -69650.975    2524.8932   -67126.082    2.5732461 
 2330000         2330    21558    926.89757   -69653.006    2582.7639   -67070.242    2.5693528 
 2335000         2335    21558    920.71185    -69679.65    2565.5276   -67114.123      2.57157 
 2340000         2340    21558     922.2328   -69667.203    2569.7657   -67097.438    2.5705508 
 2345000         2345    21558    916.99728   -69653.751    2555.1771   -67098.574    2.5711597 
 2350000         2350    21558     915.2107   -69670.365    2550.1989   -67120.167    2.5702728 
 2355000         2355    21558    917.70319   -69638.819    2557.1441   -67081.675    2.5699787 
 2360000         2360    21558    913.05069   -69641.329    2544.1801   -67097.149    2.5646829 
 2365000         2365    21558    913.72141   -69654.025     2546.049   -67107.976    2.5758146 
 2370000         2370    21558     914.0885   -69641.422    2547.0719    -67094.35    2.5702702 
 2375000         2375    21558    915.28115   -69642.269    2550.3952   -67091.874    2.5710655 
 2380000         2380    21558    922.18408   -69636.125    2569.6299   -67066.495    2.5706309 
 2385000         2385    21558    925.70501   -69652.933    2579.4409   -67073.492    2.5680165 
 2390000         2390    21558     923.3157   -69656.222    2572.7831   -67083.439    2.5730364 
 2395000         2395    21558    913.15237   -69659.984    2544.4634   -67115.521    2.5750213 
 2400000         2400    21558    912.14028   -69643.691    2541.6433   -67102.048    2.5697405 
 2405000         2405    21558    921.61687   -69651.577    2568.0494   -67083.528    2.5673406 
 2410000         2410    21558     923.7065   -69644.776    2573.8721   -67070.904    2.5720535 
 2415000         2415    21558    918.96871   -69665.359    2560.6704   -67104.689     2.571519 
 2420000         2420    21558    921.72034   -69659.718    2568.3377    -67091.38    2.5727178 
 2425000         2425    21558    916.38479   -69644.278    2553.4704   -67090.807    2.5694069 
 2430000         2430    21558    916.61385   -69613.202    2554.1087   -67059.093    2.5685759 
 2435000         2435    21558    921.72277   -69661.098    2568.3445   -67092.753    2.5686468 
 2440000         2440    21558    918.41209   -69645.412    2559.1194   -67086.292    2.5702807 
 2445000         2445    21558    925.18225    -69670.96    2577.9842   -67092.976     2.574568 
 2450000         2450    21558    909.61048   -69659.799    2534.5941   -67125.205     2.570041 
 2455000         2455    21558    909.21501   -69658.963    2533.4921   -67125.471     2.568628 
 2460000         2460    21558    923.80934   -69661.247    2574.1587   -67087.089    2.5685268 
 2465000         2465    21558    920.77548   -69655.031    2565.7049   -67089.327    2.5728071 
 2470000         2470    21558    918.03511   -69672.452     2558.069   -67114.383    2.5653163 
 2475000         2475    21558    915.94764   -69635.819    2552.2523   -67083.566    2.5711355 
 2480000         2480    21558    926.53951   -69664.913    2581.7662   -67083.147    2.5650576 
 2485000         2485    21558    914.99361   -69638.351    2549.5939   -67088.757    2.5695683 
 2490000         2490    21558     921.2784   -69667.359    2567.1063   -67100.252    2.5665891 
 2495000         2495    21558    919.78522   -69663.048    2562.9456   -67100.102    2.5720461 
 2500000         2500    21558    920.37647   -69653.529    2564.5931   -67088.935    2.5654638 
 2505000         2505    21558    913.65585   -69656.405    2545.8663   -67110.539    2.5655451 
 2510000         2510    21558    914.95095   -69672.866    2549.4751   -67123.391    2.5671438 
 2515000         2515    21558    914.06922   -69669.554    2547.0182   -67122.536    2.5690626 
 2520000         2520    21558    914.38873   -69681.447    2547.9085   -67133.539    2.5675815 
 2525000         2525    21558    909.88921   -69656.766    2535.3707   -67121.395    2.5660256 
 2530000         2530    21558    919.86476   -69657.235    2563.1672   -67094.068    2.5700741 
 2535000         2535    21558    929.50509   -69636.368    2590.0296   -67046.338    2.5673143 
 2540000         2540    21558    921.05917   -69659.302    2566.4954   -67092.806    2.5722519 
 2545000         2545    21558    915.80092   -69683.832    2551.8435   -67131.988    2.5661198 
 2550000         2550    21558    921.15767   -69653.055    2566.7699   -67086.285    2.5639004 
 2555000         2555    21558    926.94344   -69651.196    2582.8917   -67068.304    2.5648558 
 2560000         2560    21558    925.75912   -69644.012    2579.5916    -67064.42    2.5645362 
 2565000         2565    21558    921.12057   -69671.811    2566.6665   -67105.145    2.5728518 
 2570000         2570    21558    927.24446   -69664.841    2583.7305   -67081.111    2.5702419 
 2575000         2575    21558     920.8466    -69663.36    2565.9031   -67097.457    2.5695888 
 2580000         2580    21558    911.29079   -69664.396    2539.2762    -67125.12    2.5668684 
 2585000         2585    21558    923.25672   -69677.589    2572.6188    -67104.97    2.5703154 
 2590000         2590    21558    923.64804    -69662.21    2573.7092   -67088.501     2.574206 
 2595000         2595    21558    924.24289   -69655.312    2575.3667   -67079.946    2.5686809 
 2600000         2600    21558    923.70639   -69664.177    2573.8718   -67090.306    2.5656527 
 2605000         2605    21558    929.61802   -69662.426    2590.3443   -67072.081    2.5655856 
 2610000         2610    21558    920.42294   -69669.667    2564.7226   -67104.945    2.5713754 
 2615000         2615    21558    916.35099   -69667.032    2553.3762   -67113.655     2.567895 
 2620000         2620    21558    917.42515   -69669.922    2556.3694   -67113.553    2.5712932 
 2625000         2625    21558     916.3294   -69636.289    2553.3161   -67082.973    2.5643654 
 2630000         2630    21558    906.45527   -69639.538    2525.8022   -67113.735    2.5678682 
 2635000         2635    21558    920.01396     -69673.1     2563.583   -67109.517    2.5625816 
 2640000         2640    21558    908.19196   -69645.076    2530.6414   -67114.435    2.5696053 
 2645000         2645    21558    918.53969   -69642.928     2559.475   -67083.453    2.5677007 
 2650000         2650    21558    914.14321   -69658.192    2547.2243   -67110.968    2.5665726 
 2655000         2655    21558    918.30893   -69648.346     2558.832   -67089.514    2.5686317 
 2660000         2660    21558    922.38048   -69644.964    2570.1772   -67074.787    2.5711374 
 2665000         2665    21558    920.44201   -69674.438    2564.7757   -67109.662    2.5701612 
 2670000         2670    21558    916.63839   -69646.743    2554.1771   -67092.566    2.5685836 
 2675000         2675    21558    914.36095   -69624.348    2547.8311   -67076.517    2.5680299 
 2680000         2680    21558    920.41736   -69642.817     2564.707    -67078.11    2.5665624 
 2685000         2685    21558    929.82836   -69660.271    2590.9304   -67069.341    2.5680754 
 2690000         2690    21558    917.23461   -69659.733    2555.8384   -67103.895    2.5665009 
 2695000         2695    21558    917.60651   -69652.625    2556.8747   -67095.751    2.5695119 
 2700000         2700    21558    921.17684   -69636.147    2566.8233   -67069.324    2.5684953 
 2705000         2705    21558    921.99948   -69663.497    2569.1155   -67094.381    2.5649462 
 2710000         2710    21558    917.57088   -69658.886    2556.7754   -67102.111    2.5702962 
 2715000         2715    21558    920.64147   -69640.986    2565.3315   -67075.654     2.564917 
 2720000         2720    21558    916.59181   -69652.078    2554.0473   -67098.031    2.5670748 
 2725000         2725    21558    917.54046   -69634.737    2556.6907   -67078.046    2.5653817 
 2730000         2730    21558     916.4711    -69631.07    2553.7109   -67077.359    2.5682535 
 2735000         2735    21558    925.62071   -69618.823     2579.206   -67039.617    2.5664775 
 2740000         2740    21558    920.32686   -69655.905    2564.4549    -67091.45    2.5671122 
 2745000         2745    21558    916.62304    -69644.14    2554.1343   -67090.006    2.5640512 
 2750000         2750    21558    924.66742   -69671.635    2576.5497   -67095.086    2.5668488 
 2755000         2755    21558    919.90626   -69681.095    2563.2829   -67117.812    2.5670836 
 2760000         2760    21558    916.17806    -69655.34    2552.8944   -67102.446    2.5661642 
 2765000         2765    21558    908.33683   -69649.696    2531.0451   -67118.651    2.5650571 
 2770000         2770    21558    909.12768   -69658.224    2533.2488   -67124.975    2.5692204 
 2775000         2775    21558    921.51434   -69640.058    2567.7637   -67072.294    2.5698896 
 2780000         2780    21558     922.6798   -69659.334    2571.0112   -67088.323    2.5701864 
 2785000         2785    21558     918.4334    -69657.23    2559.1788   -67098.052    2.5695891 
 2790000         2790    21558     912.1081   -69629.073    2541.5536   -67087.519    2.5665018 
 2795000         2795    21558    923.06404   -69649.268    2572.0819   -67077.187     2.570799 
 2800000         2800    21558    918.93325   -69658.949    2560.5716   -67098.377    2.5699403 
 2805000         2805    21558    917.46764   -69651.902    2556.4878   -67095.414    2.5716669 
 2810000         2810    21558     917.4358   -69649.261     2556.399   -67092.862    2.5705443 
 2815000         2815    21558     917.4863    -69642.15    2556.5397   -67085.611    2.5692196 
 2820000         2820    21558    914.57533    -69636.36    2548.4284   -67087.932    2.5680541 
 2825000         2825    21558    912.22736   -69653.694    2541.8859   -67111.808    2.5716753 
 2830000         2830    21558    918.23268   -69659.511    2558.6195   -67100.891     2.568634 
 2835000         2835    21558    919.71374   -69652.244    2562.7464   -67089.497    2.5690847 
 2840000         2840    21558    922.80257   -69631.866    2571.3533   -67060.513    2.5656626 
 2845000         2845    21558    913.09301   -69667.064     2544.298   -67122.766    2.5670964 
 2850000         2850    21558    915.03143   -69654.448    2549.6994   -67104.748    2.5673099 
 2855000         2855    21558    917.56654    -69653.62    2556.7633   -67096.857    2.5696602 
 2860000         2860    21558    913.13408   -69650.684    2544.4124   -67106.272     2.570297 
 2865000         2865    21558    921.05131   -69636.695    2566.4735   -67070.221    2.5628635 
 2870000         2870    21558    911.97137   -69631.404    2541.1726   -67090.232    2.5693996 
 2875000         2875    21558    921.90934   -69630.174    2568.8644    -67061.31    2.5693099 
 2880000         2880    21558    928.66394   -69662.635    2587.6858   -67074.949    2.5677448 
 2885000         2885    21558    919.31682   -69658.703    2561.6404   -67097.062    2.5599547 
 2890000         2890    21558    918.24026   -69649.401    2558.6406    -67090.76    2.5663762 
 2895000         2895    21558    921.73642   -69638.406    2568.3825   -67070.023     2.566951 
 2900000         2900    21558    916.25802    -69667.81    2553.1172   -67114.693    2.5683098 
 2905000         2905    21558      918.306   -69669.434    2558.8238    -67110.61     2.566225 
 2910000         2910    21558    916.83186   -69656.452    2554.7162   -67101.736    2.5699778 
 2915000         2915    21558    923.73535   -69634.674    2573.9525   -67060.722    2.5667002 
 2920000         2920    21558    920.20975   -69656.423    2564.1285   -67092.294    2.5703473 
 2925000         2925    21558    917.87157   -69649.525    2557.6133   -67091.911    2.5662416 
 2930000         2930    21558    916.12658   -69654.344    2552.7509   -67101.594    2.5678692 
 2935000         2935    21558    915.78278   -69642.455     2551.793   -67090.662    2.5667624 
 2940000         2940    21558    912.12613   -69626.792    2541.6038   -67085.188    2.5663332 
 2945000         2945    21558    905.57745   -69627.055    2523.3562   -67103.698    2.5673006 
 2950000         2950    21558    917.05707   -69636.848    2555.3437   -67081.504    2.5670164 
 2955000         2955    21558    920.84359   -69639.343    2565.8947   -67073.448    2.5670063 
 2960000         2960    21558    915.56815    -69650.38    2551.1949   -67099.185    2.5674305 
 2965000         2965    21558    905.62006   -69646.834    2523.4749   -67123.359    2.5662796 
 2970000         2970    21558    915.88414     -69658.7    2552.0754   -67106.625    2.5641424 
 2975000         2975    21558    913.22738   -69653.945    2544.6724   -67109.273    2.5679409 
 2980000         2980    21558    925.67054   -69662.308    2579.3448   -67082.963    2.5671644 
 2985000         2985    21558    915.74254   -69668.137    2551.6808   -67116.456    2.5690813 
 2990000         2990    21558    921.52828   -69660.641    2567.8026   -67092.838    2.5663747 
 2995000         2995    21558    920.95026    -69621.26    2566.1919   -67055.068    2.5640887 
 3000000         3000    21558    915.76746   -69643.702    2551.7503   -67091.952    2.5683098 
Loop time of 25381.5 on 8 procs for 3000000 steps with 21558 atoms

Performance: 10.212 ns/day, 2.350 hours/ns, 118.196 timesteps/s
100.0% CPU use with 8 MPI tasks x no OpenMP threads

MPI task timing breakdown:
Section |  min time  |  avg time  |  max time  |%varavg| %total
---------------------------------------------------------------
Pair    | 23365      | 23825      | 24252      | 192.2 | 93.87
Neigh   | 382.28     | 401.58     | 417.09     |  61.7 |  1.58
Comm    | 403.29     | 798.19     | 1295.2     |1039.6 |  3.14
Output  | 1.0172     | 1.0193     | 1.0317     |   0.5 |  0.00
Modify  | 200.43     | 262.39     | 371.03     | 398.9 |  1.03
Other   |            | 93.59      |            |       |  0.37

Nlocal:        2694.75 ave        2714 max        2653 min
Histogram: 2 0 0 0 0 0 0 0 3 3
Nghost:        14797.8 ave       15532 max       13811 min
Histogram: 2 0 0 2 0 0 0 0 0 4
Neighs:         185897 ave      189185 max      180415 min
Histogram: 2 0 0 0 0 0 2 0 1 3
FullNghs:       375026 ave      376647 max      372473 min
Histogram: 1 0 1 1 0 0 0 1 3 1

Total # of neighbors = 3000212
Ave neighs/atom = 139.16931
Neighbor list builds = 66883
Dangerous builds = 0

print "All done"
All done
Total wall time: 7:04:21
