LAMMPS (7 Jan 2022)
# GB setup adapted from lammps tutorial 3

# ---------- Initialize Simulation ---------------------
clear
units metal
dimension 3
boundary p p p
atom_style atomic

# ---------- Create Atomistic Structure ---------------------
lattice fcc 4.0982
Lattice spacing in x,y,z = 4.0982 4.0982 4.0982
region whole block -30 30 -30 30 0 1
create_box 2 whole
Created orthogonal box = (-122.946 -122.946 0) to (122.946 122.946 4.0982)
  2 by 4 by 1 MPI processor grid
lattice fcc 4.0982 orient x  0  3  1 orient y  0 -1  3 orient z  1  0  0
Lattice spacing in x,y,z = 5.1838585 5.1838585 4.0982
create_atoms 1 region whole
Created 14365 atoms
  using lattice units in orthogonal box = (-122.946 -122.946 0) to (122.946 122.946 4.0982)
  create_atoms CPU = 0.001 seconds

region cyl cylinder z 0 0 5 0 1
region rec block -5 5 -30 0 0 1
region curve union 2 cyl rec
delete_atoms region curve
Deleted 1781 atoms, new total = 12584
lattice fcc 4.0982 orient x  0  3 -1 orient y  0  1  3 orient z  1  0  0
Lattice spacing in x,y,z = 5.1838585 5.1838585 4.0982
create_atoms 2 region curve
Created 1781 atoms
  using lattice units in orthogonal box = (-122.946 -122.946 0) to (122.946 122.946 4.0982)
  create_atoms CPU = 0.001 seconds
group large type 1
12584 atoms in group large
group small type 2
1781 atoms in group small

# ---------- Define Interatomic Potential ---------------------
pair_style eam/alloy
pair_coeff * * Al99.eam.alloy Al Al
neighbor 2.0 bin
neigh_modify delay 10 check yes

# ---------- Displace atoms and delete overlapping atoms ---------------------
displace_atoms small move 0 0 0 units lattice
Displacing atoms ...
delete_atoms overlap 0.35 large small
System init for delete_atoms ...
Neighbor list info ...
  update every 1 steps, delay 10 steps, check yes
  max neighbors/atom: 2000, page size: 100000
  master list distance cutoff = 8.28721
  ghost atom cutoff = 8.28721
  binsize = 4.143605, bins = 60 60 1
  2 neighbor lists, perpetual/occasional/extra = 1 1 0
  (1) command delete_atoms, occasional
      attributes: full, newton on
      pair build: full/bin/atomonly
      stencil: full/bin/3d
      bin: standard
  (2) pair eam/alloy, perpetual
      attributes: half, newton on
      pair build: half/bin/atomonly/newton
      stencil: half/bin/3d
      bin: standard
Deleted 4 atoms, new total = 14361

# ---------- Define Settings ---------------------
compute csym all centro/atom fcc
compute eng all pe/atom
compute eatoms all reduce sum c_eng

# ---------- Run Minimization ---------------------
reset_timestep 0
thermo 10
thermo_style custom step pe lx ly lz press pxx pyy pzz c_eatoms
dump 		1 all cfg 25 dump.initialize.*.cfg mass type xs ys zs c_csym c_eng fx fy fz
dump_modify     1 element Al Al
min_style cg
minimize 1e-15 1e-15 5000 5000
WARNING: Using 'neigh_modify every 1 delay 0 check yes' setting during minimization (../min.cpp:187)
Neighbor list info ...
  update every 1 steps, delay 0 steps, check yes
  max neighbors/atom: 2000, page size: 100000
  master list distance cutoff = 8.28721
  ghost atom cutoff = 8.28721
  binsize = 4.143605, bins = 60 60 1
  2 neighbor lists, perpetual/occasional/extra = 1 1 0
  (1) pair eam/alloy, perpetual
      attributes: half, newton on
      pair build: half/bin/atomonly/newton
      stencil: half/bin/3d
      bin: standard
  (2) compute centro/atom, occasional
      attributes: full, newton on
      pair build: full/bin/atomonly
      stencil: full/bin/3d
      bin: standard
Per MPI rank memory allocation (min/avg/max) = 8.502 | 8.503 | 8.504 Mbytes
Step PotEng Lx Ly Lz Press Pxx Pyy Pzz c_eatoms 
       0   -47833.206      245.892      245.892       4.0982   -25350.707   -23709.868   -25327.069   -27015.183   -47833.206 
      10   -48046.559      245.892      245.892       4.0982   -24415.276    -23158.93   -24584.264   -25502.635   -48046.559 
      20   -48056.233      245.892      245.892       4.0982    -24315.11   -23008.456    -24404.81   -25532.064   -48056.233 
      30   -48059.861      245.892      245.892       4.0982   -24236.414   -22920.249   -24258.955   -25530.038   -48059.861 
      40   -48062.446      245.892      245.892       4.0982   -24187.957   -22840.972   -24180.859    -25542.04   -48062.446 
      50   -48064.161      245.892      245.892       4.0982   -24233.052   -22848.941   -24245.086    -25605.13   -48064.161 
      60   -48065.161      245.892      245.892       4.0982   -24300.679   -22927.955   -24337.491   -25636.591   -48065.161 
      70   -48066.559      245.892      245.892       4.0982   -24438.024   -23049.653   -24498.321   -25766.097   -48066.559 
      80   -48067.647      245.892      245.892       4.0982   -24488.622   -23121.421   -24524.347   -25820.098   -48067.647 
      90   -48068.569      245.892      245.892       4.0982   -24595.855   -23248.452   -24633.741   -25905.371   -48068.569 
     100   -48069.263      245.892      245.892       4.0982   -24668.065   -23361.659   -24702.119   -25940.418   -48069.263 
     110   -48070.286      245.892      245.892       4.0982   -24741.023   -23484.563   -24750.755    -25987.75   -48070.286 
     120   -48071.293      245.892      245.892       4.0982   -24771.768   -23525.149   -24774.292   -26015.864   -48071.293 
     130   -48072.243      245.892      245.892       4.0982   -24851.846   -23614.197   -24859.288   -26082.052   -48072.243 
     140   -48072.807      245.892      245.892       4.0982   -24922.847   -23691.838   -24961.063   -26115.638   -48072.807 
     150   -48073.241      245.892      245.892       4.0982   -24957.066   -23737.682   -25002.498   -26131.018   -48073.241 
     160   -48073.675      245.892      245.892       4.0982   -24968.909   -23750.476   -25013.567   -26142.683   -48073.675 
     170   -48073.961      245.892      245.892       4.0982   -24978.907   -23761.327   -25020.996   -26154.397   -48073.961 
     180   -48074.107      245.892      245.892       4.0982   -24981.081   -23783.212   -25006.981   -26153.048   -48074.107 
     190    -48074.68      245.892      245.892       4.0982   -25000.141   -23861.735   -24964.076    -26174.61    -48074.68 
     200   -48074.935      245.892      245.892       4.0982   -25003.765   -23875.854   -24944.016   -26191.424   -48074.935 
     210   -48075.243      245.892      245.892       4.0982   -25007.598   -23885.824   -24943.294   -26193.676   -48075.243 
     220   -48075.349      245.892      245.892       4.0982   -25005.237   -23884.541   -24939.366   -26191.803   -48075.349 
     230   -48075.416      245.892      245.892       4.0982   -25010.824   -23895.944   -24943.665   -26192.864   -48075.416 
     240   -48075.467      245.892      245.892       4.0982   -25017.354   -23903.809   -24947.162   -26201.091   -48075.467 
     250   -48075.551      245.892      245.892       4.0982   -25033.287   -23932.757   -24953.657   -26213.447   -48075.551 
     260   -48075.822      245.892      245.892       4.0982   -25027.724   -23921.492   -24954.442   -26207.237   -48075.822 
     270    -48075.88      245.892      245.892       4.0982    -25027.99   -23923.801   -24952.858   -26207.311    -48075.88 
     280   -48075.914      245.892      245.892       4.0982    -25037.32   -23937.364   -24957.996   -26216.601   -48075.914 
     290   -48075.927      245.892      245.892       4.0982   -25037.034   -23935.141   -24957.969   -26217.993   -48075.927 
     300   -48075.937      245.892      245.892       4.0982   -25038.578   -23936.269   -24959.649   -26219.815   -48075.937 
     310    -48075.95      245.892      245.892       4.0982   -25038.468   -23934.544   -24961.572   -26219.288    -48075.95 
     320   -48075.961      245.892      245.892       4.0982    -25038.69   -23937.724   -24961.984   -26216.362   -48075.961 
     330   -48075.969      245.892      245.892       4.0982   -25038.817   -23940.113   -24961.116   -26215.221   -48075.969 
     340   -48075.974      245.892      245.892       4.0982   -25039.395     -23940.5   -24961.634    -26216.05   -48075.974 
     350   -48075.977      245.892      245.892       4.0982   -25039.584   -23940.227   -24962.647   -26215.877   -48075.977 
     360   -48075.979      245.892      245.892       4.0982   -25039.134   -23940.072   -24962.002   -26215.329   -48075.979 
     370    -48075.98      245.892      245.892       4.0982   -25039.191   -23940.277   -24961.783   -26215.514    -48075.98 
     380   -48075.981      245.892      245.892       4.0982   -25039.222   -23939.545   -24962.313   -26215.808   -48075.981 
     390   -48075.981      245.892      245.892       4.0982   -25039.242   -23939.284   -24962.564   -26215.876   -48075.981 
     400   -48075.981      245.892      245.892       4.0982   -25039.238   -23939.112    -24962.73   -26215.873   -48075.981 
     410   -48075.982      245.892      245.892       4.0982    -25039.29   -23939.033   -24962.984   -26215.852   -48075.982 
     420   -48075.982      245.892      245.892       4.0982   -25039.225   -23938.796   -24963.011    -26215.87   -48075.982 
     430   -48075.982      245.892      245.892       4.0982   -25039.191   -23938.677   -24963.072   -26215.824   -48075.982 
     440   -48075.982      245.892      245.892       4.0982   -25039.274   -23938.718   -24963.231   -26215.874   -48075.982 
     450   -48075.982      245.892      245.892       4.0982   -25039.175   -23938.507   -24963.173   -26215.846   -48075.982 
     460   -48075.982      245.892      245.892       4.0982   -25039.132   -23938.369   -24963.195   -26215.832   -48075.982 
     470   -48075.982      245.892      245.892       4.0982   -25039.131     -23938.3   -24963.232   -26215.861   -48075.982 
     480   -48075.982      245.892      245.892       4.0982   -25039.131    -23938.24   -24963.261   -26215.892   -48075.982 
     490   -48075.982      245.892      245.892       4.0982   -25039.116   -23938.168   -24963.284   -26215.896   -48075.982 
     500   -48075.982      245.892      245.892       4.0982   -25039.107   -23938.116   -24963.306     -26215.9   -48075.982 
     510   -48075.982      245.892      245.892       4.0982   -25039.083   -23938.042   -24963.314   -26215.892   -48075.982 
     520   -48075.982      245.892      245.892       4.0982   -25039.062   -23937.969   -24963.328   -26215.889   -48075.982 
     530   -48075.982      245.892      245.892       4.0982   -25039.047   -23937.902   -24963.349   -26215.891   -48075.982 
     540   -48075.982      245.892      245.892       4.0982   -25039.028    -23937.84   -24963.348   -26215.898   -48075.982 
     550   -48075.982      245.892      245.892       4.0982   -25039.019   -23937.796   -24963.354   -26215.906   -48075.982 
     560   -48075.982      245.892      245.892       4.0982   -25039.009   -23937.749   -24963.361   -26215.915   -48075.982 
     570   -48075.982      245.892      245.892       4.0982   -25038.999   -23937.713   -24963.361   -26215.922   -48075.982 
     580   -48075.982      245.892      245.892       4.0982   -25038.993   -23937.688   -24963.362   -26215.928   -48075.982 
     590   -48075.982      245.892      245.892       4.0982   -25038.985   -23937.666   -24963.359   -26215.931   -48075.982 
     600   -48075.992      245.892      245.892       4.0982   -25034.642   -23931.215   -24956.548   -26216.161   -48075.992 
     610       -48076      245.892      245.892       4.0982   -25034.362   -23931.407   -24956.083   -26215.596       -48076 
     620   -48076.001      245.892      245.892       4.0982   -25034.637   -23932.886   -24955.518   -26215.508   -48076.001 
     630   -48076.001      245.892      245.892       4.0982   -25034.905   -23934.436   -24954.883   -26215.395   -48076.001 
     640   -48076.001      245.892      245.892       4.0982   -25035.226    -23935.49   -24954.729   -26215.459   -48076.001 
     650   -48076.001      245.892      245.892       4.0982   -25035.395   -23935.993   -24954.649   -26215.542   -48076.001 
     660   -48076.002      245.892      245.892       4.0982   -25035.396   -23936.345   -24954.344   -26215.498   -48076.002 
     670   -48076.002      245.892      245.892       4.0982   -25035.402   -23936.726   -24954.182     -26215.3   -48076.002 
     680   -48076.002      245.892      245.892       4.0982   -25035.386   -23936.997   -24954.028   -26215.133   -48076.002 
     690   -48076.002      245.892      245.892       4.0982   -25035.317   -23937.192   -24953.715   -26215.043   -48076.002 
     700   -48076.002      245.892      245.892       4.0982   -25035.368   -23937.386   -24953.659   -26215.059   -48076.002 
     710   -48076.002      245.892      245.892       4.0982   -25035.366   -23937.502   -24953.501   -26215.095   -48076.002 
     720   -48076.002      245.892      245.892       4.0982   -25035.364   -23937.639   -24953.315   -26215.139   -48076.002 
     730   -48076.002      245.892      245.892       4.0982   -25035.391   -23937.774    -24953.23   -26215.168   -48076.002 
     740   -48076.002      245.892      245.892       4.0982   -25035.383   -23937.827   -24953.133    -26215.19   -48076.002 
     750   -48076.002      245.892      245.892       4.0982    -25035.36     -23937.8   -24953.069   -26215.209   -48076.002 
     760   -48076.002      245.892      245.892       4.0982    -25035.36   -23937.811   -24953.059   -26215.211   -48076.002 
     770   -48076.002      245.892      245.892       4.0982    -25035.34   -23937.782   -24953.038   -26215.201   -48076.002 
     780   -48076.002      245.892      245.892       4.0982   -25035.336   -23937.784   -24953.033   -26215.192   -48076.002 
     790   -48076.002      245.892      245.892       4.0982   -25035.336   -23937.791   -24953.029   -26215.187   -48076.002 
     800   -48076.002      245.892      245.892       4.0982   -25035.342   -23937.803   -24953.034   -26215.189   -48076.002 
     810   -48076.002      245.892      245.892       4.0982   -25035.343     -23937.8   -24953.036   -26215.193   -48076.002 
     820   -48076.002      245.892      245.892       4.0982   -25035.346   -23937.798   -24953.043   -26215.195   -48076.002 
     830   -48076.002      245.892      245.892       4.0982   -25035.344     -23937.8   -24953.038   -26215.195   -48076.002 
     840   -48076.002      245.892      245.892       4.0982   -25035.343   -23937.803   -24953.033   -26215.192   -48076.002 
     850   -48076.002      245.892      245.892       4.0982   -25035.342   -23937.802   -24953.032   -26215.191   -48076.002 
     860   -48076.002      245.892      245.892       4.0982   -25035.341   -23937.801   -24953.032   -26215.191   -48076.002 
     868   -48076.002      245.892      245.892       4.0982   -25035.341   -23937.801   -24953.031    -26215.19   -48076.002 
Loop time of 9.04498 on 8 procs for 868 steps with 14361 atoms

99.6% CPU use with 8 MPI tasks x no OpenMP threads

Minimization stats:
  Stopping criterion = energy tolerance
  Energy initial, next-to-last, final = 
     -47833.2056327937  -48076.0018865671  -48076.0018865671
  Force two-norm initial, final = 93.595214 5.3166882e-05
  Force max component initial, final = 17.244999 1.1203114e-05
  Final line search alpha, max atom move = 1 1.1203114e-05
  Iterations, force evaluations = 868 1642

MPI task timing breakdown:
Section |  min time  |  avg time  |  max time  |%varavg| %total
---------------------------------------------------------------
Pair    | 7.7977     | 7.8699     | 7.9658     |   2.2 | 87.01
Neigh   | 0.050107   | 0.051004   | 0.051836   |   0.2 |  0.56
Comm    | 0.1601     | 0.24516    | 0.30732    |  10.6 |  2.71
Output  | 0.64489    | 0.66709    | 0.75519    |   4.1 |  7.38
Modify  | 0          | 0          | 0          |   0.0 |  0.00
Other   |            | 0.2119     |            |       |  2.34

Nlocal:        1795.12 ave        1805 max        1783 min
Histogram: 1 0 0 1 1 3 0 0 0 2
Nghost:        12343.6 ave       12421 max       12257 min
Histogram: 1 1 0 0 2 0 2 0 1 1
Neighs:         124676 ave      125260 max      123887 min
Histogram: 1 1 0 0 1 0 2 1 1 1
FullNghs:       249355 ave      250865 max      247753 min
Histogram: 2 0 0 0 0 3 1 1 0 1

Total # of neighbors = 1994838
Ave neighs/atom = 138.90662
Neighbor list builds = 12
Dangerous builds = 0
undump 1

# ---------- Run Minimization 2---------------------
# Now allow the box to expand/contract perpendicular to the grain boundary
reset_timestep 0
thermo 10
thermo_style custom step pe lx ly lz press pxx pyy pzz c_eatoms
fix 1 all box/relax y 0 vmax 0.001
min_style cg
minimize 1e-15 1e-15 5000 5000
WARNING: Using 'neigh_modify every 1 delay 0 check yes' setting during minimization (../min.cpp:187)
Per MPI rank memory allocation (min/avg/max) = 7.115 | 7.115 | 7.116 Mbytes
Step PotEng Lx Ly Lz Press Pxx Pyy Pzz c_eatoms 
       0   -48076.002      245.892      245.892       4.0982   -25035.341   -23937.801   -24953.031    -26215.19   -48076.002 
      10   -48106.146      245.892    243.43308       4.0982   -17657.677   -18458.492   -13980.203   -20534.337   -48106.146 
      20    -48119.03      245.892    240.97416       4.0982   -10012.167   -12780.417   -2594.9095   -14661.176    -48119.03 
      30   -48119.949      245.892    240.35181       4.0982   -8138.8525   -11369.947    47.166233   -13093.777   -48119.949 
      40   -48119.952      245.892    240.34723       4.0982   -8141.2007   -11377.947    29.155452   -13074.811   -48119.952 
      50   -48119.954      245.892    240.34373       4.0982   -8143.1298   -11383.322    14.438231   -13060.506   -48119.954 
      60   -48120.058      245.892    240.38197       4.0982   -8271.2469   -11462.909   -193.20599   -13157.626   -48120.058 
      70   -48120.076      245.892    240.35896       4.0982     -8180.67   -11386.569   -42.774292   -13112.667   -48120.076 
      80    -48120.08      245.892    240.35712       4.0982   -8165.1581   -11375.365   -4.6624334   -13115.447    -48120.08 
      90   -48120.149      245.892    240.37815       4.0982   -8246.6414   -11442.137   -122.04557   -13175.742   -48120.149 
     100   -48120.173      245.892    240.34826       4.0982   -8157.9691   -11376.375  -0.10913397   -13097.423   -48120.173 
     110   -48120.213      245.892     240.3351       4.0982   -8140.8591   -11357.415    1.0102157   -13066.173   -48120.213 
     120   -48120.213      245.892    240.33011       4.0982   -8132.6184   -11349.576    6.1477394   -13054.426   -48120.213 
     130   -48120.253      245.892    240.33199       4.0982   -8141.7285   -11358.266  -0.15092753   -13066.769   -48120.253 
     140   -48120.258      245.892    240.33151       4.0982   -8140.4602   -11357.928    1.7948336   -13065.248   -48120.258 
     150   -48120.263      245.892    240.33264       4.0982   -8144.5826   -11361.054   -4.0924089   -13068.601   -48120.263 
     160   -48120.266      245.892    240.33156       4.0982   -8141.7719   -11358.563  -0.21517138   -13066.537   -48120.266 
     170   -48120.269      245.892    240.33124       4.0982   -8141.1986   -11358.505   0.83217905   -13065.923   -48120.269 
     180   -48120.272      245.892    240.33469       4.0982   -8153.1534    -11367.32   -17.221367   -13074.919   -48120.272 
     190   -48120.276      245.892     240.3326       4.0982   -8147.6903   -11363.299   -9.3798498   -13070.392   -48120.276 
     200   -48120.295      245.892    240.32588       4.0982    -8143.736   -11357.561   -9.8529491   -13063.794   -48120.295 
     210   -48120.336      245.892    240.32197       4.0982   -8137.2823   -11355.579   0.53866059   -13056.807   -48120.336 
     220   -48120.373      245.892    240.32968       4.0982   -8168.9217   -11384.956   -43.794459   -13078.015   -48120.373 
     230    -48120.38      245.892    240.32071       4.0982     -8140.67   -11364.105   -1.1279323   -13056.777    -48120.38 
     240   -48120.386      245.892    240.32023       4.0982   -8139.4191   -11364.118    1.3773057   -13055.517   -48120.386 
     250   -48120.391      245.892    240.32593       4.0982   -8158.3471   -11378.863    -26.25484   -13069.923   -48120.391 
     260   -48120.395      245.892    240.32059       4.0982   -8141.7697    -11366.81   -1.1530153   -13057.346   -48120.395 
     270   -48120.399      245.892    240.32012       4.0982    -8140.577   -11366.761    1.0951285   -13056.065   -48120.399 
     280   -48120.405      245.892    240.32558       4.0982   -8158.8043   -11380.956   -25.596182   -13069.861   -48120.405 
     290   -48120.409      245.892    240.32029       4.0982   -8142.4095   -11368.977  -0.83249178   -13057.419   -48120.409 
     300   -48120.414      245.892    240.31977       4.0982   -8141.0958   -11368.832    1.5388513   -13055.995   -48120.414 
     310   -48120.423      245.892      240.321       4.0982   -8145.7908    -11373.05   -4.9816144   -13059.341   -48120.423 
     320   -48120.433      245.892    240.31917       4.0982   -8141.3264   -11369.314    1.9850292    -13056.65   -48120.433 
     330   -48120.584      245.892    240.31902       4.0982   -8138.4084   -11365.361    1.6485726   -13051.512   -48120.584 
     340   -48120.589      245.892    240.32013       4.0982   -8140.5849   -11363.405   -5.1061046   -13053.244   -48120.589 
     350   -48120.623      245.892    240.32459       4.0982   -8151.8411   -11365.954   -28.551689   -13061.018   -48120.623 
     360   -48120.685      245.892    240.32832       4.0982    -8165.115   -11376.232   -47.565162   -13071.548   -48120.685 
     370   -48120.694      245.892    240.31853       4.0982   -8133.4617   -11352.352    -1.129307   -13046.904   -48120.694 
     380   -48120.702      245.892    240.31767       4.0982   -8130.8821   -11348.911    1.3878676   -13045.123   -48120.702 
     390   -48120.712      245.892    240.32501       4.0982   -8154.5383   -11364.974   -35.666152   -13062.975   -48120.712 
     400   -48120.719      245.892    240.31756       4.0982    -8130.495   -11346.393   -1.0947376   -13043.998   -48120.719 
     410   -48120.727      245.892    240.31656       4.0982   -8127.7347   -11342.705    1.4660579   -13041.965   -48120.727 
     420   -48120.738      245.892    240.32461       4.0982   -8154.1056   -11360.645   -39.864353   -13061.807   -48120.738 
     430   -48120.749      245.892    240.31619       4.0982   -8127.2498   -11339.925   -1.2576995   -13040.566   -48120.749 
     440    -48120.76      245.892    240.31491       4.0982     -8123.87   -11335.516    2.0233684   -13038.118    -48120.76 
     450   -48120.778      245.892    240.32487       4.0982   -8156.6143   -11357.851   -49.133776   -13062.858   -48120.778 
     460   -48120.795      245.892     240.3145       4.0982   -8123.5254   -11332.297   -1.4975957   -13036.782   -48120.795 
     470   -48120.812      245.892    240.31297       4.0982   -8119.4857   -11326.973    2.4924489   -13033.977   -48120.812 
     480   -48120.839      245.892    240.32483       4.0982   -8158.6621   -11353.727   -58.573503   -13063.686   -48120.839 
     490   -48120.862      245.892    240.31237       4.0982    -8119.202   -11323.314   -1.6649645   -13032.627   -48120.862 
     500   -48120.887      245.892    240.31027       4.0982   -8114.0067   -11316.734    3.7369181   -13029.023   -48120.887 
     510   -48120.926      245.892    240.32317       4.0982   -8157.3734   -11346.134   -63.992659   -13061.994   -48120.926 
     520   -48120.957      245.892    240.30932       4.0982   -8114.0056   -11312.505   -1.4907357   -13028.022   -48120.957 
     530   -48120.991      245.892    240.30599       4.0982   -8105.3569   -11302.886     9.000127   -13022.185   -48120.991 
     540   -48121.036      245.892    240.31437       4.0982   -8134.1438   -11321.502   -36.485323   -13044.444   -48121.036 
     550   -48121.065      245.892    240.30652       4.0982   -8109.5066   -11302.359   -1.0684653   -13025.092   -48121.065 
     560    -48121.09      245.892    240.30503       4.0982   -8105.8019   -11297.585    3.1842871   -13023.005    -48121.09 
     570   -48121.116      245.892    240.31616       4.0982   -8142.3431   -11323.327    -52.62508   -13051.077   -48121.116 
     580   -48121.133      245.892     240.3053       4.0982   -8107.5304   -11297.117   -1.5175706   -13023.957   -48121.133 
     590   -48121.148      245.892    240.30418       4.0982   -8104.5264   -11293.395    1.9837152   -13022.168   -48121.148 
     600   -48121.166      245.892     240.3137       4.0982   -8135.3966     -11315.1   -45.242499   -13045.847   -48121.166 
     610   -48121.178      245.892    240.30444       4.0982   -8105.4126   -11292.375   -1.3607152   -13022.503   -48121.178 
     620    -48121.19      245.892    240.30348       4.0982   -8102.4909   -11288.639    1.9200004   -13020.754    -48121.19 
     630   -48121.205      245.892    240.31235       4.0982   -8130.8576   -11308.243   -41.734575   -13042.596   -48121.205 
     640   -48121.216      245.892    240.30382       4.0982   -8103.0523   -11286.986   -1.1512594   -13021.019   -48121.216 
     650   -48121.226      245.892    240.30297       4.0982   -8100.4008   -11283.477    1.8133642   -13019.539   -48121.226 
     660   -48121.239      245.892    240.31115       4.0982   -8126.5163   -11301.588   -38.215233   -13039.745   -48121.239 
     670   -48121.247      245.892    240.30339       4.0982   -8101.1968   -11282.333   -1.1034311   -13020.154   -48121.247 
     680   -48121.255      245.892    240.30267       4.0982    -8098.987   -11279.429    1.4327249   -13018.965   -48121.255 
     690   -48121.265      245.892    240.31007       4.0982   -8122.6249    -11295.94   -34.709417   -13037.225   -48121.265 
     700   -48121.272      245.892    240.30301       4.0982    -8099.625   -11278.505  -0.99445554   -13019.375   -48121.272 
     710   -48121.279      245.892    240.30233       4.0982   -8097.5114   -11275.828    1.4601644   -13018.166   -48121.279 
     720   -48121.289      245.892    240.30944       4.0982     -8120.37    -11292.01   -33.344497   -13035.756   -48121.289 
     730   -48121.295      245.892    240.30265       4.0982    -8098.414   -11275.628  -0.93364837    -13018.68   -48121.295 
     740   -48121.302      245.892    240.30199       4.0982   -8096.6085   -11273.553    1.4050154   -13017.678   -48121.302 
     750    -48121.31      245.892    240.30882       4.0982    -8118.914   -11289.833    -32.08032   -13034.829    -48121.31 
     760   -48121.317      245.892    240.30228       4.0982   -8098.0256   -11274.587  -0.91828771   -13018.572   -48121.317 
     770   -48121.322      245.892    240.30164       4.0982    -8096.522   -11273.104    1.2902018   -13017.752   -48121.322 
     780    -48121.33      245.892    240.30802       4.0982   -8117.6017   -11288.824   -30.067885   -13033.913    -48121.33 
     790   -48121.335      245.892    240.30189       4.0982   -8098.1008   -11274.738  -0.85840797   -13018.706   -48121.335 
     800    -48121.34      245.892    240.30131       4.0982   -8096.7942   -11273.485    1.0954558   -13017.993    -48121.34 
     810   -48121.346      245.892    240.30707       4.0982   -8115.7616   -11287.591   -27.165475   -13032.528   -48121.346 
     820    -48121.35      245.892    240.30154       4.0982   -8098.1133   -11274.763  -0.79755663   -13018.779    -48121.35 
     830   -48121.354      245.892    240.30105       4.0982   -8096.9527   -11273.575   0.86969685   -13018.152   -48121.354 
     840   -48121.358      245.892    240.30604       4.0982   -8113.3077   -11285.639   -23.575388   -13030.708   -48121.358 
     850   -48121.361      245.892    240.30124       4.0982   -8097.9153   -11274.384  -0.62630817   -13018.735   -48121.361 
     860   -48121.364      245.892    240.30083       4.0982   -8096.9155   -11273.293   0.76161382   -13018.215   -48121.364 
     870   -48121.367      245.892    240.30522       4.0982   -8111.2086   -11283.769   -20.654875   -13029.201   -48121.367 
     880    -48121.37      245.892    240.30101       4.0982   -8097.6969   -11273.849  -0.54470818   -13018.698    -48121.37 
     890   -48121.372      245.892    240.30018       4.0982   -8095.2371   -11271.689    3.0057493   -13017.028   -48121.372 
     900   -48121.375      245.892    240.30445       4.0982   -8109.1338   -11281.845   -17.842553   -13027.714   -48121.375 
     910   -48121.377      245.892     240.3008       4.0982    -8097.399    -11273.21  -0.40103531   -13018.586   -48121.377 
     920   -48121.379      245.892    240.30049       4.0982   -8096.6083    -11272.29   0.64518112    -13018.18   -48121.379 
     930   -48121.381      245.892    240.30401       4.0982   -8108.0412   -11280.607   -16.546586    -13026.97   -48121.381 
     940   -48121.383      245.892     240.3006       4.0982    -8097.059   -11272.522   -0.2379518   -13018.417   -48121.383 
     950   -48121.384      245.892    240.29978       4.0982   -8094.5974   -11270.384    3.2988778   -13016.707   -48121.384 
     960   -48121.386      245.892    240.30348       4.0982   -8106.5991   -11279.126   -14.743712   -13025.928   -48121.386 
     970   -48121.388      245.892    240.30048       4.0982   -8096.9128   -11271.983  -0.37513036    -13018.38   -48121.388 
     980   -48121.389      245.892     240.3002       4.0982   -8096.1722   -11271.129   0.59595131   -13017.984   -48121.389 
     990   -48121.391      245.892    240.30293       4.0982   -8105.0449   -11277.539   -12.783376   -13024.812   -48121.391 
    1000   -48121.392      245.892    240.30031       4.0982   -8096.6084   -11271.308  -0.27985842   -13018.237   -48121.392 
    1010   -48121.393      245.892    240.29994       4.0982   -8095.5673   -11270.238     1.134437   -13017.598   -48121.393 
    1020     -48121.4      245.892    240.29725       4.0982   -8087.1251   -11263.227    12.756271   -13010.905     -48121.4 
    1030   -48121.405      245.892    240.30437       4.0982   -8110.3552   -11279.788   -22.265068   -13029.013   -48121.405 
    1040   -48121.406      245.892    240.29972       4.0982   -8095.5184   -11268.467  -0.26877139    -13017.82   -48121.406 
    1050   -48121.407      245.892     240.2993       4.0982   -8094.1695   -11267.442    1.6357963   -13016.703   -48121.407 
    1060   -48121.408      245.892    240.30192       4.0982   -8102.6661   -11273.581   -11.167028    -13023.25   -48121.408 
    1070   -48121.408      245.892    240.29961       4.0982   -8095.3295   -11267.913  -0.33095058   -13017.744   -48121.408 
    1080   -48121.409      245.892    240.29935       4.0982   -8094.4769   -11267.289   0.86816707    -13017.01   -48121.409 
    1090    -48121.41      245.892    240.30145       4.0982    -8101.307   -11272.213   -9.4376467    -13022.27    -48121.41 
    1100   -48121.411      245.892    240.29951       4.0982   -8095.1398   -11267.416  -0.34854527   -13017.655   -48121.411 
    1110   -48121.411      245.892    240.29927       4.0982     -8094.35    -11266.85   0.76403843   -13016.964   -48121.411 
    1120   -48121.412      245.892    240.30125       4.0982   -8100.8012   -11271.499   -8.9737283   -13021.931   -48121.412 
    1130   -48121.412      245.892    240.29932       4.0982   -8094.6586   -11266.738  0.084699794   -13017.323   -48121.412 
    1140   -48121.414      245.892    240.29921       4.0982   -8094.5098    -11266.19 -0.014797345   -13017.325   -48121.414 
    1150   -48121.422      245.892    240.29865       4.0982   -8093.4413   -11263.594   0.10260496   -13016.832   -48121.422 
    1160   -48121.447      245.892    240.29534       4.0982   -8086.6377   -11247.506   0.12310872    -13012.53   -48121.447 
    1170   -48121.448      245.892    240.29546       4.0982        -8087   -11247.906  -0.29182476   -13012.802   -48121.448 
    1180    -48121.45      245.892     240.2952       4.0982   -8086.2779   -11245.943   0.21748141   -13013.108    -48121.45 
    1190   -48121.452      245.892     240.2973       4.0982   -8093.1533   -11251.234   -9.7538421   -13018.472   -48121.452 
    1200   -48121.452      245.892    240.29548       4.0982   -8087.3142   -11246.795   -1.0009234   -13014.147   -48121.452 
    1210   -48121.452      245.892    240.29568       4.0982   -8088.0929   -11247.016   -1.9836987   -13015.279   -48121.452 
    1220   -48121.456      245.892    240.29515       4.0982   -8086.1931   -11244.944   0.23591076   -13013.871   -48121.456 
    1230   -48121.456      245.892    240.29512       4.0982    -8086.201   -11244.555   0.22564676   -13014.274   -48121.456 
    1240   -48121.456      245.892     240.2951       4.0982   -8086.0763   -11244.333   0.30019433   -13014.196   -48121.456 
    1250   -48121.457      245.892    240.29524       4.0982   -8086.5465   -11244.368  -0.24078124   -13015.031   -48121.457 
    1260   -48121.458      245.892    240.29509       4.0982    -8085.985   -11243.702   0.45638207   -13014.709   -48121.458 
    1270   -48121.459      245.892    240.29515       4.0982    -8086.219   -11243.566 -0.019130786   -13015.072   -48121.459 
    1280   -48121.462      245.892    240.29319       4.0982   -8079.8291   -11237.433    9.4226463   -13011.477   -48121.462 
    1290   -48121.465      245.892    240.29466       4.0982   -8084.5523   -11239.675     1.625338   -13015.607   -48121.465 
    1300   -48121.465      245.892    240.29491       4.0982   -8085.3576   -11240.237  0.055068071   -13015.891   -48121.465 
    1310   -48121.466      245.892    240.29495       4.0982   -8085.5229   -11240.502 -0.049318961   -13016.017   -48121.466 
    1320   -48121.466      245.892    240.29438       4.0982   -8083.7067   -11239.104    2.8145491    -13014.83   -48121.466 
    1330   -48121.466      245.892    240.29501       4.0982   -8085.7781    -11240.64  -0.44594524   -13016.248   -48121.466 
    1340   -48121.467      245.892    240.29493       4.0982    -8085.594   -11240.711  -0.40192989   -13015.669   -48121.467 
    1350   -48121.467      245.892     240.2948       4.0982   -8085.1946     -11240.4  0.062078545   -13015.245   -48121.467 
    1360   -48121.467      245.892    240.29472       4.0982   -8084.9999   -11239.879  0.092507256   -13015.213   -48121.467 
    1370   -48121.468      245.892    240.29445       4.0982   -8084.3668   -11238.876   0.86423243   -13015.088   -48121.468 
    1380    -48121.47      245.892    240.29425       4.0982    -8083.773   -11238.544    1.7018837   -13014.477    -48121.47 
    1390    -48121.47      245.892    240.29497       4.0982   -8086.0949    -11240.37   -1.5749369   -13016.339    -48121.47 
    1400    -48121.47      245.892    240.29752       4.0982   -8094.3095   -11246.471   -14.272773   -13022.185    -48121.47 
    1410   -48121.471      245.892    240.29458       4.0982   -8084.8764    -11239.41 -0.081275148   -13015.138   -48121.471 
    1420   -48121.471      245.892    240.29449       4.0982   -8084.6003   -11239.197    0.3510628   -13014.955   -48121.471 
    1430   -48121.471      245.892    240.29465       4.0982   -8085.1022   -11239.539   -0.3515273   -13015.416   -48121.471 
    1440   -48121.471      245.892    240.29437       4.0982   -8084.2874   -11238.981   0.64375004   -13014.525   -48121.471 
    1450   -48121.471      245.892    240.29503       4.0982   -8086.4695   -11240.447   -2.7060418   -13016.255   -48121.471 
    1460   -48121.472      245.892     240.2946       4.0982   -8085.0788   -11239.385   -0.6506179   -13015.201   -48121.472 
    1470   -48121.472      245.892    240.29493       4.0982   -8086.1742   -11240.266    -2.296912   -13015.959   -48121.472 
    1480   -48121.472      245.892    240.29448       4.0982   -8084.7174   -11239.021 -0.081397143    -13015.05   -48121.472 
    1490   -48121.472      245.892    240.29454       4.0982   -8084.9123   -11239.137  -0.36772056   -13015.233   -48121.472 
    1500   -48121.472      245.892    240.29561       4.0982   -8088.3609   -11241.679   -5.6859712   -13017.717   -48121.472 
    1510   -48121.472      245.892    240.29442       4.0982   -8084.5907   -11238.888 -0.066507919   -13014.817   -48121.472 
    1520   -48121.472      245.892     240.2943       4.0982   -8084.1641   -11238.524   0.45646491   -13014.425   -48121.472 
    1530   -48121.473      245.892     240.2949       4.0982   -8086.1148   -11239.945   -2.4845004   -13015.914   -48121.473 
    1540   -48121.473      245.892    240.29441       4.0982   -8084.6043   -11238.857   -0.1034548   -13014.852   -48121.473 
    1550   -48121.473      245.892    240.29462       4.0982   -8085.2509   -11239.278   -1.2001522   -13015.274   -48121.473 
    1560   -48121.486      245.892    240.29117       4.0982   -8076.8891   -11227.655     3.817811    -13006.83   -48121.486 
    1570   -48121.486      245.892    240.29052       4.0982   -8075.2415   -11225.513    4.9903799   -13005.202   -48121.486 
    1580   -48121.486      245.892    240.28999       4.0982   -8074.1269   -11223.571    5.1296524    -13003.94   -48121.486 
    1590   -48121.486      245.892    240.28929       4.0982   -8072.6403   -11221.157    5.5869954   -13002.351   -48121.486 
    1600   -48121.486      245.892    240.28839       4.0982   -8070.6067   -11218.147    6.6361498   -13000.309   -48121.486 
    1610   -48121.486      245.892    240.28665       4.0982   -8066.1575   -11213.049    10.940099   -12996.364   -48121.486 
    1620   -48121.499      245.892    240.28667       4.0982   -8070.5306   -11211.337  -0.01759452   -13000.238   -48121.499 
    1630   -48121.502      245.892    240.28641       4.0982    -8070.278   -11211.375   0.53366122   -12999.993   -48121.502 
    1640   -48121.502      245.892    240.28641       4.0982    -8070.515   -11211.744   0.41865433    -13000.22   -48121.502 
    1650   -48121.503      245.892    240.28644       4.0982   -8070.8623   -11212.217   0.13026837     -13000.5   -48121.503 
    1660   -48121.514      245.892    240.28619       4.0982   -8074.4737   -11219.024     -1.29426   -13003.103   -48121.514 
    1670   -48121.538      245.892     240.2853       4.0982   -8078.8773   -11230.119   -0.1754671   -13006.337   -48121.538 
    1680   -48121.572      245.892     240.2775       4.0982   -8055.8276   -11216.886    39.045295   -12989.642   -48121.572 
    1690   -48121.593      245.892    240.25643       4.0982   -7990.1325   -11171.755    139.76284   -12938.405   -48121.593 
    1700   -48121.595      245.892    240.28643       4.0982   -8087.0316   -11243.971   -4.2223962   -13012.901   -48121.595 
    1710   -48121.608      245.892    240.28589       4.0982   -8085.7469   -11243.359   -2.3026737   -13011.579   -48121.608 
    1720   -48121.675      245.892    240.28393       4.0982   -8078.4494   -11237.881    8.5641392   -13006.031   -48121.675 
    1730   -48121.711      245.892    240.28637       4.0982   -8083.5262   -11239.865   -1.6401831   -13009.073   -48121.711 
    1740   -48121.809      245.892    240.29724       4.0982   -8118.5404   -11265.062   -55.570217   -13034.989   -48121.809 
    1750   -48121.813      245.892    240.28433       4.0982   -8076.5636   -11231.348    5.4125311   -13003.755   -48121.813 
    1760   -48121.863      245.892    240.28585       4.0982   -8080.4937   -11232.652    -2.218739    -13006.61   -48121.863 
    1770    -48121.87      245.892    240.28517       4.0982   -8078.4365   -11232.035    1.2109347   -13004.486    -48121.87 
    1780   -48121.875      245.892    240.28775       4.0982   -8086.9306   -11238.586   -11.353679   -13010.852   -48121.875 
    1790   -48121.879      245.892    240.28536       4.0982   -8079.4791   -11232.929  -0.23908479   -13005.269   -48121.879 
    1800   -48121.882      245.892    240.28518       4.0982   -8078.8128   -11232.826   0.84323433   -13004.456   -48121.882 
    1810   -48121.885      245.892    240.28941       4.0982   -8092.5158   -11243.197   -19.498478   -13014.852   -48121.885 
    1820   -48121.888      245.892    240.28547       4.0982   -8080.0454   -11233.891  -0.84321392   -13005.402   -48121.888 
    1830    -48121.89      245.892    240.28513       4.0982   -8078.9293   -11233.483   0.94603426   -13004.251    -48121.89 
    1840   -48121.893      245.892    240.28904       4.0982   -8091.6389   -11243.159    -17.87803    -13013.88   -48121.893 
    1850   -48121.896      245.892    240.28539       4.0982    -8080.112   -11234.585  -0.61220398   -13005.139   -48121.896 
    1860   -48121.898      245.892    240.28503       4.0982   -8078.9533   -11234.133    1.2426197    -13003.97   -48121.898 
    1870   -48121.901      245.892    240.28877       4.0982   -8091.1369    -11243.39   -16.804035   -13013.216   -48121.901 
    1880   -48121.902      245.892    240.28536       4.0982   -8080.4091   -11235.399  -0.73593356   -13005.092   -48121.902 
    1890   -48121.904      245.892    240.28503       4.0982   -8079.3803   -11234.997   0.91149211   -13004.055   -48121.904 
    1900   -48121.907      245.892     240.2881       4.0982   -8089.4447   -11242.669   -13.982578   -13011.683   -48121.907 
    1910   -48121.936      245.892    240.28741       4.0982   -8091.6452   -11247.703   -15.301981    -13011.93   -48121.936 
    1920   -48121.938      245.892    240.28449       4.0982   -8083.1203   -11241.388   -1.6839468   -13006.289   -48121.938 
    1930   -48121.944      245.892    240.28952       4.0982   -8099.8817   -11254.578   -26.142957   -13018.924   -48121.944 
    1940   -48121.945      245.892    240.28394       4.0982   -8082.7515   -11242.358  -0.49458384   -13005.402   -48121.945 
    1950   -48121.955      245.892    240.28406       4.0982   -8083.6768   -11244.425    -1.748543   -13004.857   -48121.955 
    1960   -48121.967      245.892    240.30425       4.0982   -8148.6771   -11291.055   -99.454806   -13055.521   -48121.967 
    1970   -48121.986      245.892    240.28338       4.0982   -8080.5802     -11238.6  -0.42862825   -13002.712   -48121.986 
    1980   -48121.989      245.892    240.28308       4.0982   -8079.6067   -11237.281   0.72599654   -13002.265   -48121.989 
    1990   -48121.992      245.892    240.28644       4.0982   -8090.3028     -11244.8   -15.526004   -13010.582   -48121.992 
    2000   -48121.993      245.892     240.2833       4.0982   -8080.0318   -11237.099   -0.3652873   -13002.631   -48121.993 
    2010   -48121.995      245.892    240.28304       4.0982   -8079.2497   -11236.069   0.61508863   -13002.295   -48121.995 
    2020   -48121.997      245.892    240.28602       4.0982   -8088.7977   -11242.867   -13.791625   -13009.735   -48121.997 
    2030   -48121.998      245.892    240.28322       4.0982   -8079.7173   -11236.101  -0.32949394   -13002.721   -48121.998 
    2040   -48121.999      245.892    240.28298       4.0982   -8079.0171   -11235.227     0.597522   -13002.421   -48121.999 
    2050   -48122.001      245.892    240.28558       4.0982   -8087.3805   -11241.223   -11.976499   -13008.942   -48122.001 
    2060   -48122.001      245.892    240.28422       4.0982   -8083.0831   -11237.604   -5.6965051   -13005.948   -48122.001 
    2070   -48122.001      245.892    240.28405       4.0982   -8082.6032   -11236.785   -5.1433361   -13005.881   -48122.001 
    2080   -48122.001      245.892    240.28389       4.0982   -8082.1659   -11235.787   -4.7475033   -13005.963   -48122.001 
    2090   -48122.001      245.892    240.28351       4.0982   -8080.9926   -11233.873   -3.4292861   -13005.676   -48122.001 
    2100   -48122.011      245.892     240.2828       4.0982   -8078.5428   -11231.876  0.062147922   -13003.815   -48122.011 
    2110   -48122.013      245.892    240.28284       4.0982    -8079.096   -11231.084  -0.82580039   -13005.378   -48122.013 
    2120   -48122.016      245.892    240.28327       4.0982   -8080.4968   -11231.755   -3.3022848   -13006.433   -48122.016 
    2130   -48122.016      245.892    240.27952       4.0982   -8068.3362   -11222.436    14.500105   -12997.073   -48122.016 
    2140   -48122.016      245.892    240.28244       4.0982   -8077.6532   -11229.282   0.45580027   -13004.134   -48122.016 
    2150   -48122.017      245.892    240.28237       4.0982   -8077.3665    -11229.15    1.0199034   -13003.969   -48122.017 
    2160   -48122.018      245.892    240.28396       4.0982   -8082.4984   -11232.788   -6.6079561     -13008.1   -48122.018 
    2170   -48122.018      245.892     240.2826       4.0982   -8078.1686   -11229.359  -0.18388242   -13004.963   -48122.018 
    2180   -48122.018      245.892    240.28255       4.0982   -8078.0205   -11229.092 -0.00010049189    -13004.97   -48122.018 
    2190   -48122.019      245.892    240.28407       4.0982   -8082.8909   -11232.571   -7.3136957   -13008.788   -48122.019 
    2200   -48122.019      245.892    240.28227       4.0982   -8077.1748   -11227.897    1.0990798   -13004.727   -48122.019 
    2210   -48122.021      245.892    240.30283       4.0982   -8143.2767   -11274.411   -98.275424   -13057.143   -48122.021 
    2220   -48122.028      245.892    240.28243       4.0982   -8077.2753   -11224.451  -0.29825459   -13007.076   -48122.028 
    2230   -48122.028      245.892    240.28238       4.0982   -8077.1183   -11223.772  -0.19952923   -13007.383   -48122.028 
    2240    -48122.03      245.892    240.28265       4.0982    -8077.684   -11223.754   -1.3050351   -13007.993    -48122.03 
    2250    -48122.03      245.892    240.28241       4.0982   -8076.8126   -11222.985 -0.076271951   -13007.376    -48122.03 
    2260   -48122.031      245.892    240.28231       4.0982   -8076.4824   -11222.486   0.34234133   -13007.303   -48122.031 
    2270   -48122.031      245.892    240.28327       4.0982   -8079.4767   -11224.491   -4.2021193   -13009.737   -48122.031 
    2280   -48122.031      245.892    240.28243       4.0982   -8076.6835   -11222.348 -0.079981099   -13007.623   -48122.031 
    2290   -48122.032      245.892    240.28267       4.0982   -8077.4494    -11222.62   -1.3035514   -13008.425   -48122.032 
    2300   -48122.032      245.892    240.28216       4.0982   -8075.7201   -11220.851    1.1318618   -13007.441   -48122.032 
    2310   -48122.033      245.892    240.28383       4.0982   -8080.9087   -11224.553   -6.6912316   -13011.481   -48122.033 
    2320   -48122.033      245.892    240.28264       4.0982   -8077.0205   -11221.177   -1.0365001   -13008.849   -48122.033 
    2330   -48122.034      245.892    240.28261       4.0982   -8076.7224   -11220.928  -0.64789305   -13008.592   -48122.034 
    2340   -48122.037      245.892    240.28753       4.0982   -8091.5013   -11228.589     -23.8449    -13022.07   -48122.037 
    2350   -48122.039      245.892    240.28267       4.0982   -8075.1331   -11215.168 -0.090628901   -13010.141   -48122.039 
    2360    -48122.04      245.892    240.28456       4.0982   -8081.4247   -11220.294   -9.2799648     -13014.7    -48122.04 
    2370    -48122.04      245.892     240.2831       4.0982   -8076.7207   -11216.947   -2.2306439   -13010.984    -48122.04 
    2380    -48122.04      245.892    240.28265       4.0982   -8075.2999   -11216.007 -0.077684235   -13009.815    -48122.04 
    2390   -48122.041      245.892    240.28264       4.0982   -8075.4137   -11216.746 -0.067864507   -13009.427   -48122.041 
    2400   -48122.041      245.892    240.28231       4.0982   -8074.3297   -11215.967    1.5445279   -13008.567   -48122.041 
    2410   -48122.041      245.892    240.28317       4.0982   -8077.1127   -11218.019   -2.6133766   -13010.705   -48122.041 
    2420   -48122.041      245.892    240.28263       4.0982   -8075.3929   -11216.707 -0.056679524   -13009.415   -48122.041 
    2430   -48122.041      245.892    240.28251       4.0982   -8075.0078   -11216.447    0.5169434   -13009.093   -48122.041 
    2440   -48122.041      245.892    240.28303       4.0982   -8076.6784    -11217.68   -1.9795278   -13010.375   -48122.041 
    2450   -48122.041      245.892    240.28262       4.0982   -8075.3667   -11216.673 -0.030659261   -13009.396   -48122.041 
    2460   -48122.041      245.892    240.28259       4.0982   -8075.3006   -11216.556  0.049117296   -13009.395   -48122.041 
    2470   -48122.043      245.892    240.28243       4.0982   -8074.8054   -11215.636   0.21190729   -13008.992   -48122.043 
    2480   -48122.043      245.892    240.28247       4.0982    -8074.837   -11215.816   0.10339511   -13008.798   -48122.043 
    2490   -48122.044      245.892    240.28252       4.0982   -8074.9577   -11215.968 -0.0096779272   -13008.895   -48122.044 
    2500   -48122.045      245.892     240.2826       4.0982   -8075.0898    -11216.18 -0.0029439462   -13009.086   -48122.045 
    2510   -48122.045      245.892    240.28263       4.0982   -8075.1176   -11216.295 -0.034699813   -13009.023   -48122.045 
    2516   -48122.045      245.892    240.28263       4.0982   -8075.1085   -11216.292  -0.02097395   -13009.012   -48122.045 
Loop time of 26.6494 on 8 procs for 2516 steps with 14361 atoms

100.0% CPU use with 8 MPI tasks x no OpenMP threads

Minimization stats:
  Stopping criterion = max force evaluations
  Energy initial, next-to-last, final = 
     -48076.0018865671   -48122.044945604  -48122.0449456199
  Force two-norm initial, final = 3859.1788 0.016046582
  Force max component initial, final = 3859.1788 0.0047220294
  Final line search alpha, max atom move = 0.02021492 9.5455444e-05
  Iterations, force evaluations = 2516 5000

MPI task timing breakdown:
Section |  min time  |  avg time  |  max time  |%varavg| %total
---------------------------------------------------------------
Pair    | 24.214     | 24.414     | 24.818     |   4.2 | 91.61
Neigh   | 0.037496   | 0.038247   | 0.038677   |   0.2 |  0.14
Comm    | 0.4488     | 0.79826    | 1.0349     |  20.5 |  3.00
Output  | 0.020181   | 0.020628   | 0.023467   |   0.7 |  0.08
Modify  | 0          | 0          | 0          |   0.0 |  0.00
Other   |            | 1.378      |            |       |  5.17

Nlocal:        1795.12 ave        1803 max        1785 min
Histogram: 1 1 1 0 0 0 1 2 0 2
Nghost:        12484.5 ave       12554 max       12441 min
Histogram: 2 1 2 0 1 0 0 0 1 1
Neighs:         124931 ave      125729 max      123490 min
Histogram: 1 0 0 1 0 0 1 2 2 1
FullNghs:       249355 ave      250865 max      247753 min
Histogram: 2 0 0 0 0 3 1 1 0 1

Total # of neighbors = 1994838
Ave neighs/atom = 138.90662
Neighbor list builds = 9
Dangerous builds = 0

# ---------- Calculate GB Energy ---------------------
variable minimumenergy equal -3.360000
variable esum equal "v_minimumenergy * count(all)"
variable xseng equal "c_eatoms - (v_minimumenergy * count(all))"
variable gbarea equal "lx * lz * 2"
variable gbe equal "(c_eatoms - (v_minimumenergy * count(all)))/v_gbarea"
variable gbemJm2 equal ${gbe}*16021.7733
variable gbemJm2 equal 0.064956414799176*16021.7733
variable gbernd equal round(${gbemJm2})
variable gbernd equal round(1040.71695229316)
print "GB energy is ${gbemJm2} mJ/m^2"
GB energy is 1040.71695229316 mJ/m^2

# ---------- Dump data into Data file -------------
reset_timestep 0
dump 		1 all cfg 10000 dump.setup.*.cfg mass type xs ys zs c_csym c_eng fx fy fz
dump_modify     1 element Al Al
minimize 1e-15 1e-15 5000 5000
WARNING: Using 'neigh_modify every 1 delay 0 check yes' setting during minimization (../min.cpp:187)
Per MPI rank memory allocation (min/avg/max) = 8.503 | 8.504 | 8.505 Mbytes
Step PotEng Lx Ly Lz Press Pxx Pyy Pzz c_eatoms 
       0   -48122.045      245.892    240.28263       4.0982   -8075.1085   -11216.292  -0.02097395   -13009.012   -48122.045 
      10   -48122.045      245.892    240.28324       4.0982    -8077.018   -11217.392   -2.9393897   -13010.722   -48122.045 
      20   -48122.046      245.892    240.28275       4.0982   -8074.8402   -11214.973  0.069973156   -13009.618   -48122.046 
      30   -48122.046      245.892    240.28277       4.0982   -8074.9263   -11215.133 -0.014563698   -13009.632   -48122.046 
      40   -48122.046      245.892    240.28277       4.0982   -8074.9297   -11215.146 -0.017360001   -13009.626   -48122.046 
      50   -48122.046      245.892    240.28277       4.0982   -8074.9394   -11215.187 -0.022838673   -13009.609   -48122.046 
      60   -48122.046      245.892    240.28278       4.0982   -8074.9814   -11215.311 -0.053807268   -13009.579   -48122.046 
      70   -48122.046      245.892    240.28278       4.0982   -8075.0323   -11215.485 -0.075626676   -13009.537   -48122.046 
      80   -48122.046      245.892    240.28278       4.0982   -8075.0731   -11215.656  -0.07156589   -13009.492   -48122.046 
      90   -48122.046      245.892    240.28278       4.0982   -8075.1252   -11215.758  -0.11456586   -13009.503   -48122.046 
     100   -48122.046      245.892    240.28277       4.0982     -8075.13   -11215.785  -0.10548721   -13009.499   -48122.046 
     110   -48122.046      245.892    240.28275       4.0982   -8075.0793   -11215.759 -0.016661901   -13009.462   -48122.046 
     120   -48122.046      245.892    240.28275       4.0982   -8075.0874   -11215.765 -0.022075119   -13009.475   -48122.046 
     130   -48122.046      245.892    240.28275       4.0982   -8075.0912   -11215.767 -0.021040097   -13009.486   -48122.046 
     140   -48122.046      245.892    240.28275       4.0982   -8075.1108   -11215.795 -0.026806166   -13009.511   -48122.046 
     150   -48122.046      245.892    240.28278       4.0982   -8075.2101   -11215.905  -0.14369629   -13009.581   -48122.046 
     160   -48122.046      245.892    240.28288       4.0982   -8075.5335   -11216.185  -0.60090954   -13009.815   -48122.046 
     170   -48122.046      245.892    240.28272       4.0982    -8074.927   -11215.788   0.25391133   -13009.247   -48122.046 
     180   -48122.046      245.892    240.28277       4.0982   -8075.0701   -11215.663 -0.064967921   -13009.482   -48122.046 
     190   -48122.046      245.892    240.28271       4.0982    -8074.825   -11215.402   0.24696562    -13009.32   -48122.046 
     200   -48122.046      245.892    240.28272       4.0982   -8074.8356   -11215.406   0.22644014   -13009.327   -48122.046 
     210   -48122.046      245.892    240.28275       4.0982   -8074.9251   -11215.476  0.092175782   -13009.391   -48122.046 
     220   -48122.046      245.892    240.28278       4.0982   -8075.0343   -11215.605 -0.033177031   -13009.464   -48122.046 
Loop time of 2.38339 on 8 procs for 220 steps with 14361 atoms

100.0% CPU use with 8 MPI tasks x no OpenMP threads

Minimization stats:
  Stopping criterion = energy tolerance
  Energy initial, next-to-last, final = 
     -48122.0449456199  -48122.0460858005  -48122.0460858006
  Force two-norm initial, final = 0.016031788 0.0076177352
  Force max component initial, final = 0.0047220294 0.0050140318
  Final line search alpha, max atom move = 0.26107897 0.0013090583
  Iterations, force evaluations = 220 440

MPI task timing breakdown:
Section |  min time  |  avg time  |  max time  |%varavg| %total
---------------------------------------------------------------
Pair    | 2.1597     | 2.1786     | 2.2105     |   1.1 | 91.41
Neigh   | 0          | 0          | 0          |   0.0 |  0.00
Comm    | 0.037416   | 0.065063   | 0.087847   |   5.7 |  2.73
Output  | 0.0016668  | 0.0017052  | 0.0019442  |   0.2 |  0.07
Modify  | 0          | 0          | 0          |   0.0 |  0.00
Other   |            | 0.138      |            |       |  5.79

Nlocal:        1795.12 ave        1804 max        1784 min
Histogram: 1 1 1 0 0 0 1 1 1 2
Nghost:        12482.4 ave       12570 max       12441 min
Histogram: 2 3 0 1 0 0 1 0 0 1
Neighs:         124917 ave      125560 max      123432 min
Histogram: 1 0 0 1 0 0 1 0 2 3
FullNghs:       249833 ave      250995 max      247533 min
Histogram: 1 0 0 1 1 0 0 1 1 3

Total # of neighbors = 1998666
Ave neighs/atom = 139.17318
Neighbor list builds = 0
Dangerous builds = 0
undump 1

# ----------Setup Fixed and Thermostat Regions--------------------
change_box all boundary p s p
Changing box ...
region edge block -122.946 122.946 -122.946 -110.6514 0 4.0982 side in units box
group frozen region edge
562 atoms in group frozen
region bulk block -122.946 122.946 -122.946 -110.6514 0 4.0982 side out units box
group tstat region bulk
13799 atoms in group tstat
fix 2 frozen setforce 0.0 0.0 0.0
velocity all create 1500 12345 mom yes rot no
fix 3 tstat nvt temp 750 750 0.1

# ---------- Run Minimization ---------------------
reset_timestep 0
timestep 0.001
thermo 5000
thermo_style custom step time atoms temp pe ke etotal density
dump 1 all cfg 50000 dump.motion.*.cfg mass type xs ys zs
dump_modify     1 element Al Al
run 3000000
Per MPI rank memory allocation (min/avg/max) = 7.309 | 7.31 | 7.311 Mbytes
Step Time Atoms Temp PotEng KinEng TotEng Density 
       0            0    14361         1500   -48015.209    2784.2635   -45230.945    2.6592611 
    5000            5    14361     773.3895   -46645.324    1435.5468   -45209.777    2.5773891 
   10000           10    14361    781.41255   -46579.012     1450.439   -45128.573    2.5596426 
   15000           15    14361     779.4626   -46725.963    1446.8195   -45279.144    2.6510531 
   20000           20    14361    781.87318    -46655.35     1451.294   -45204.056    2.5867815 
   25000           25    14361    771.16942   -46562.674    1431.4259   -45131.248    2.5593532 
   30000           30    14361    780.29782   -46717.355    1448.3698   -45268.985    2.6406958 
   35000           35    14361    771.86331   -46680.073    1432.7139   -45247.359    2.5961184 
   40000           40    14361    779.23292   -46550.512    1446.3932   -45104.119     2.553231 
   45000           45    14361    783.20845   -46697.619    1453.7725   -45243.846    2.6239577 
   50000           50    14361    780.37894   -46706.169    1448.5204   -45257.648    2.6021096 
   55000           55    14361    782.01369    -46525.48    1451.5548   -45073.926    2.5520279 
   60000           60    14361    776.94533   -46709.925     1442.147   -45267.778     2.616006 
   65000           65    14361    778.98032    -46713.98    1445.9243   -45268.055    2.6208828 
   70000           70    14361    780.98938   -46533.144    1449.6535    -45083.49    2.5480024 
   75000           75    14361    770.27337   -46690.908    1429.7627   -45261.145    2.6050643 
   80000           80    14361      781.512   -46717.827    1450.6236   -45267.204    2.6263316 
   85000           85    14361    777.83129   -46538.487    1443.7915   -45094.696    2.5532964 
   90000           90    14361    781.76287   -46686.315    1451.0892   -45235.226    2.5967185 
   95000           95    14361    779.79709   -46707.321    1447.4404    -45259.88     2.636137 
  100000          100    14361    777.35049    -46578.17    1442.8991   -45135.271    2.5620081 
  105000          105    14361     781.5413   -46639.922     1450.678   -45189.244    2.5902802 
  110000          110    14361    784.13092   -46714.064    1455.4847   -45258.579    2.6377722 
  115000          115    14361     770.2917   -46603.559    1429.7967   -45173.762    2.5657485 
  120000          120    14361    771.86998   -46638.513    1432.7263   -45205.787    2.5768368 
  125000          125    14361    774.56195   -46698.438    1437.7231   -45260.715    2.6353125 
  130000          130    14361    773.02398   -46634.889    1434.8683   -45200.021    2.5766787 
  135000          135    14361    779.55377   -46604.065    1446.9887   -45157.076     2.570772 
  140000          140    14361    782.02796   -46699.421    1451.5813    -45247.84    2.6310577 
  145000          145    14361    785.73679   -46665.797    1458.4655   -45207.331    2.5801792 
  150000          150    14361     776.9767   -46604.858    1442.2052   -45162.652    2.5591779 
  155000          155    14361    780.69568   -46700.575    1449.1083   -45251.467    2.6265064 
  160000          160    14361    774.73057   -46683.428     1438.036   -45245.392    2.5951609 
  165000          165    14361    776.37181   -46584.288    1441.0825   -45143.205    2.5661552 
  170000          170    14361    773.60833   -46701.746     1435.953   -45265.793    2.6220673 
  175000          175    14361    776.88188   -46686.494    1442.0293   -45244.464    2.6026385 
  180000          180    14361    786.42486   -46581.107    1459.7427   -45121.364    2.5621571 
  185000          185    14361    778.49609   -46698.539    1445.0255   -45253.514    2.6156144 
  190000          190    14361    789.35277   -46692.407    1465.1774   -45227.229    2.6120426 
  195000          195    14361    776.14233   -46572.402    1440.6565   -45131.746    2.5619033 
  200000          200    14361    786.12871   -46683.628     1459.193   -45224.435    2.6082666 
  205000          205    14361    785.70093   -46686.748     1458.399   -45228.349    2.6175985 
  210000          210    14361    778.17046    -46576.13    1444.4211   -45131.709    2.5587279 
  215000          215    14361    782.46712   -46683.044    1452.3964   -45230.648     2.601864 
  220000          220    14361    781.13379   -46703.356    1449.9216   -45253.434    2.6209011 
  225000          225    14361     780.2436   -46586.411    1448.2692   -45138.142    2.5676584 
  230000          230    14361    776.72699   -46665.923    1441.7418   -45224.182    2.5937786 
  235000          235    14361    765.58111   -46703.354     1421.053   -45282.301    2.6284522 
  240000          240    14361     790.1243   -46608.785    1466.6095   -45142.175    2.5677645 
  245000          245    14361    782.54164   -46665.634    1452.5348   -45213.099      2.59047 
  250000          250    14361    774.25009   -46702.353    1437.1442   -45265.209    2.6250411 
  255000          255    14361    782.04102   -46629.344    1451.6055   -45177.738    2.5747117 
  260000          260    14361      779.457    -46663.35    1446.8091    -45216.54    2.5860972 
  265000          265    14361     782.4976   -46702.574     1452.453   -45250.121    2.6269118 
  270000          270    14361    772.32677     -46633.1    1433.5742   -45199.526    2.5820027 
  275000          275    14361    777.74315   -46612.466    1443.6279   -45168.838    2.5764738 
  280000          280    14361    776.41726    -46708.18    1441.1668   -45267.013    2.6218573 
  285000          285    14361    784.80819   -46658.602    1456.7419    -45201.86     2.586423 
  290000          290    14361    782.33098   -46627.078    1452.1437   -45174.935    2.5739729 
  295000          295    14361    776.89578   -46699.607    1442.0551   -45257.552    2.6227806 
  300000          300    14361    776.64354   -46672.609    1441.5869   -45231.022    2.5901451 
  305000          305    14361    776.35176   -46612.554    1441.0453   -45171.508    2.5734958 
  310000          310    14361    780.44958   -46682.037    1448.6515   -45233.386    2.6192588 
  315000          315    14361     779.2962   -46684.359    1446.5107   -45237.849    2.5979477 
  320000          320    14361    785.02591    -46605.53     1457.146   -45148.384    2.5687692 
  325000          325    14361    770.74327   -46695.838    1430.6349   -45265.203    2.6157173 
  330000          330    14361    781.04829   -46697.084    1449.7629   -45247.322      2.60411 
  335000          335    14361    778.50524   -46609.342    1445.0425     -45164.3    2.5677427 
  340000          340    14361    775.22593   -46678.787    1438.9555   -45239.832    2.6070436 
  345000          345    14361    773.21876   -46683.564    1435.2299   -45248.334    2.6066232 
  350000          350    14361    778.20116    -46623.35    1444.4781   -45178.872    2.5722544 
  355000          355    14361    775.51615   -46687.147    1439.4942   -45247.653    2.6047144 
  360000          360    14361    784.94024   -46691.483     1456.987   -45234.496    2.6105982 
  365000          365    14361    782.14939   -46600.805    1451.8067   -45148.998    2.5732141 
  370000          370    14361    785.08649   -46673.019    1457.2584   -45215.761    2.5980009 
  375000          375    14361    781.56074   -46687.357     1450.714   -45236.643    2.6171981 
  380000          380    14361    776.49762   -46614.192     1441.316   -45172.876     2.577232 
  385000          385    14361    782.81674   -46658.659    1453.0454   -45205.613    2.5898897 
  390000          390    14361    777.11481   -46704.531    1442.4616   -45262.069    2.6180115 
  395000          395    14361    778.64457    -46628.58    1445.3011   -45183.279    2.5815917 
  400000          400    14361    781.89157   -46666.622    1451.3281   -45215.294    2.5899076 
  405000          405    14361    777.63492   -46693.805     1443.427   -45250.378    2.6151331 
  410000          410    14361    779.33102   -46651.849    1446.5753   -45205.274    2.5867784 
  415000          415    14361    775.42664   -46653.809    1439.3281   -45214.481    2.5861863 
  420000          420    14361    781.22446   -46682.697    1450.0899   -45232.608    2.6135674 
  425000          425    14361    776.34837   -46655.679     1441.039    -45214.64    2.5859617 
  430000          430    14361    774.62925   -46641.648     1437.848     -45203.8    2.5825202 
  435000          435    14361    777.31819   -46701.312    1442.8391   -45258.473     2.613945 
  440000          440    14361    779.21298   -46660.697    1446.3562    -45214.34    2.5927783 
  445000          445    14361    781.88464   -46642.723    1451.3152   -45191.408    2.5817231 
  450000          450    14361    777.03306   -46688.467    1442.3099   -45246.157    2.6133516 
  455000          455    14361    780.55166   -46666.472     1448.841   -45217.631    2.5925614 
  460000          460    14361    778.20307   -46628.237    1444.4816   -45183.755    2.5745511 
  465000          465    14361    773.69316   -46693.905    1436.1104   -45257.795    2.6135067 
  470000          470    14361    782.37252   -46669.418    1452.2208   -45217.197    2.6019946 
  475000          475    14361    779.58481   -46644.317    1447.0464   -45197.271    2.5758359 
  480000          480    14361     775.2431   -46692.326    1438.9874   -45253.338    2.6119526 
  485000          485    14361    788.01394   -46686.934    1462.6923   -45224.242     2.604683 
  490000          490    14361    781.46963   -46620.049    1450.5449   -45169.504    2.5774268 
  495000          495    14361    788.22168   -46692.536    1463.0779   -45229.458    2.6053662 
  500000          500    14361    785.41328   -46680.315     1457.865    -45222.45    2.6057134 
  505000          505    14361    779.32105   -46623.314    1446.5568   -45176.757    2.5809263 
  510000          510    14361    777.79591    -46664.48    1443.7259   -45220.754    2.6006047 
  515000          515    14361    774.79021   -46681.495    1438.1467   -45243.348    2.6070796 
  520000          520    14361    784.97967    -46617.48    1457.0602   -45160.419    2.5799121 
  525000          525    14361    778.02795   -46684.798    1444.1566   -45240.642    2.5954642 
  530000          530    14361    779.05342   -46694.113      1446.06   -45248.053    2.6131333 
  535000          535    14361    774.63608   -46623.936    1437.8607   -45186.075    2.5797875 
  540000          540    14361    773.60055   -46673.937    1435.9385   -45237.998    2.5944203 
  545000          545    14361    775.61611   -46699.996    1439.6798   -45260.316    2.6133956 
  550000          550    14361    776.61679   -46645.169    1441.5372   -45203.632    2.5833478 
  555000          555    14361    783.90988   -46661.661    1455.0745   -45206.587    2.5879379 
  560000          560    14361    776.46992   -46686.478    1441.2646   -45245.213    2.6110037 
  565000          565    14361    781.46819   -46669.913    1450.5422    -45219.37    2.5867689 
  570000          570    14361    771.61118    -46657.63    1432.2459   -45225.384    2.5844404 
  575000          575    14361    781.64391   -46689.422    1450.8684   -45238.553     2.610822 
  580000          580    14361    787.05716   -46642.952    1460.9164   -45182.036    2.5896805 
  585000          585    14361    777.95711   -46646.816    1444.0251   -45202.791     2.583383 
  590000          590    14361    777.09881   -46699.411    1442.4319   -45256.979    2.6080662 
  595000          595    14361    776.32019    -46673.13    1440.9867   -45232.143    2.5910801 
  600000          600    14361    774.26575   -46655.995    1437.1733   -45218.822      2.58479 
  605000          605    14361    779.62488   -46694.604    1447.1207   -45247.483    2.6095332 
  610000          610    14361     781.5115   -46676.939    1450.6226   -45226.316     2.596487 
  615000          615    14361    780.67165   -46658.388    1449.0637   -45209.324    2.5839102 
  620000          620    14361    779.13093    -46688.53    1446.2039   -45242.326    2.6065504 
  625000          625    14361    782.27354   -46681.753    1452.0371   -45229.715     2.601556 
  630000          630    14361    774.59248   -46647.997    1437.7797   -45210.218    2.5817228 
  635000          635    14361    784.85066   -46699.952    1456.8207   -45243.131    2.6052819 
  640000          640    14361    779.19198   -46677.253    1446.3172   -45230.936    2.6034629 
  645000          645    14361     778.5332   -46653.644    1445.0944   -45208.549     2.584963 
  650000          650    14361    771.12328   -46682.192    1431.3403   -45250.852    2.6003523 
  655000          655    14361    776.40781   -46684.195    1441.1493   -45243.046    2.5998777 
  660000          660    14361    776.59974   -46663.709    1441.5056   -45222.203    2.5897045 
  665000          665    14361    779.13749   -46695.544    1446.2161   -45249.328    2.5992363 
  670000          670    14361    783.61989   -46682.962    1454.5362   -45228.426    2.6039972 
  675000          675    14361    781.98845   -46657.875    1451.5079   -45206.367    2.5865875 
  680000          680    14361    784.76014   -46680.573    1456.6527   -45223.921    2.5996922 
  685000          685    14361    783.52986   -46703.178    1454.3691   -45248.808     2.599418 
  690000          690    14361    780.95829   -46667.308    1449.5958   -45217.712     2.587383 
  695000          695    14361    770.36494   -46693.199    1429.9327   -45263.267      2.59549 
  700000          700    14361    777.89605   -46693.342    1443.9117   -45249.431     2.610035 
  705000          705    14361    778.89034   -46667.216    1445.7573   -45221.459    2.5870246 
  710000          710    14361    773.73444   -46684.145    1436.1871   -45247.958    2.5921938 
  715000          715    14361     778.3247   -46685.521    1444.7074   -45240.814    2.6088442 
  720000          720    14361    769.83819   -46664.237    1428.9549   -45235.282    2.5902471 
  725000          725    14361     784.0949   -46666.956    1455.4179   -45211.538    2.5895677 
  730000          730    14361    784.67069   -46682.572    1456.4867   -45226.085    2.6099871 
  735000          735    14361    779.14252   -46664.701    1446.2254   -45218.476    2.5913951 
  740000          740    14361    780.89355   -46670.194    1449.4756   -45220.719    2.5887302 
  745000          745    14361    779.88131   -46690.021    1447.5967   -45242.424     2.604986 
  750000          750    14361    775.36387   -46686.716    1439.2116   -45247.504    2.5902144 
  755000          755    14361    781.56811   -46654.032    1450.7277   -45203.305    2.5900848 
  760000          760    14361    779.67079   -46682.255     1447.206   -45235.049    2.6049669 
  765000          765    14361    775.26723   -46671.655    1439.0322   -45232.623    2.5961032 
  770000          770    14361    780.96562   -46642.713    1449.6094   -45193.103    2.5859133 
  775000          775    14361    777.35062   -46679.815    1442.8993   -45236.916    2.6009601 
  780000          780    14361    776.21559    -46676.31    1440.7925   -45235.518    2.5971355 
  785000          785    14361    784.49774   -46678.878    1456.1656   -45222.712    2.5869109 
  790000          790    14361    784.43451   -46684.716    1456.0483   -45228.668    2.6017294 
  795000          795    14361     785.3691   -46688.823     1457.783    -45231.04     2.600339 
  800000          800    14361    782.64743   -46638.361    1452.7311    -45185.63    2.5811041 
  805000          805    14361    788.62671   -46671.049    1463.8297   -45207.219    2.6026302 
  810000          810    14361    781.33075    -46672.57    1450.2871   -45222.283    2.6034916 
  815000          815    14361    777.98154   -46636.736    1444.0704   -45192.665    2.5849771 
  820000          820    14361    773.80226   -46676.913    1436.3129     -45240.6    2.5976871 
  825000          825    14361    771.89881   -46701.109    1432.7798   -45268.329    2.6023641 
  830000          830    14361    773.44054   -46626.325    1435.6415   -45190.683    2.5852238 
  835000          835    14361    781.31809   -46694.326    1450.2636   -45244.063    2.5949014 
  840000          840    14361    769.44619   -46678.312    1428.2273   -45250.085    2.6062316 
  845000          845    14361    773.58709   -46669.654    1435.9135    -45233.74     2.588455 
  850000          850    14361    789.79686   -46677.001    1466.0017   -45210.999    2.5980579 
  855000          855    14361    785.15461   -46685.678    1457.3849   -45228.293    2.6049268 
  860000          860    14361    777.23679   -46654.753     1442.688   -45212.065    2.5886017 
  865000          865    14361    783.60766   -46673.924    1454.5135   -45219.411    2.5887165 
  870000          870    14361    780.18959   -46689.619    1448.1689    -45241.45    2.6049356 
  875000          875    14361    782.38953   -46661.533    1452.2524   -45209.281    2.5908596 
  880000          880    14361    767.59437   -46677.875      1424.79   -45253.085    2.5936069 
  885000          885    14361    776.91904   -46698.937    1442.0982   -45256.838    2.6028996 
  890000          890    14361    768.89611   -46679.311    1427.2063   -45252.104    2.5908143 
  895000          895    14361    783.48153   -46653.103    1454.2794   -45198.823    2.5926241 
  900000          900    14361    776.16455   -46691.213    1440.6978   -45250.515    2.6057156 
  905000          905    14361    776.02058   -46673.193    1440.4305   -45232.763    2.5921394 
  910000          910    14361    772.03477   -46672.173    1433.0322   -45239.141    2.5898939 
  915000          915    14361    782.66122   -46686.851    1452.7567   -45234.094    2.6052367 
  920000          920    14361    776.84786   -46669.397    1441.9661   -45227.431    2.5917312 
  925000          925    14361    782.25069   -46673.569    1451.9947   -45221.575    2.5859161 
  930000          930    14361    782.77527   -46678.713    1452.9684   -45225.745    2.5997203 
  935000          935    14361    763.78314   -46674.662    1417.7157   -45256.946    2.5984289 
  940000          940    14361    788.80957   -46668.792    1464.1691   -45204.623    2.5902687 
  945000          945    14361    777.11847   -46685.112    1442.4684   -45242.644    2.5951401 
  950000          950    14361     782.9946   -46678.796    1453.3755    -45225.42     2.588075 
  955000          955    14361    785.68859   -46675.822    1458.3761   -45217.446    2.5920379 
  960000          960    14361    775.90568   -46681.647    1440.2172   -45241.429    2.5981801 
  965000          965    14361    780.13934    -46683.82    1448.0757   -45235.744    2.5915615 
  970000          970    14361    779.84191   -46664.592    1447.5236   -45217.068    2.5872939 
  975000          975    14361    776.30013   -46676.685    1440.9494   -45235.735    2.5981765 
  980000          980    14361    777.03669     -46681.9    1442.3166   -45239.583    2.5947602 
  985000          985    14361    771.85704   -46670.831    1432.7023   -45238.129    2.5880166 
  990000          990    14361    787.80918   -46672.752    1462.3122   -45210.439    2.5962995 
  995000          995    14361    786.86598   -46695.111    1460.5615   -45234.549    2.5976726 
 1000000         1000    14361    780.25257    -46690.98    1448.2858   -45242.694    2.5893033 
 1005000         1005    14361    777.54315   -46671.154    1443.2567   -45227.897     2.595568 
 1010000         1010    14361     783.5263   -46680.987    1454.3625   -45226.624    2.5924146 
 1015000         1015    14361    775.19162   -46662.944    1438.8918   -45224.052    2.5902513 
 1020000         1020    14361    780.27457   -46666.762    1448.3267   -45218.435    2.5903946 
 1025000         1025    14361    775.24613   -46680.102     1438.993   -45241.109    2.5996108 
 1030000         1030    14361    775.18494   -46666.936    1438.8794   -45228.057    2.5846251 
 1035000         1035    14361    780.57491   -46677.017    1448.8842   -45228.133    2.5890054 
 1040000         1040    14361    784.34669    -46701.64    1455.8853   -45245.754    2.6002582 
 1045000         1045    14361    776.10261   -46675.486    1440.5828   -45234.903    2.5905201 
 1050000         1050    14361    778.12647   -46686.168    1444.3394   -45241.828    2.5892966 
 1055000         1055    14361    787.16343   -46687.257    1461.1136   -45226.143    2.5993156 
 1060000         1060    14361    774.55142   -46653.737    1437.7035   -45216.033    2.5885155 
 1065000         1065    14361      789.039   -46661.895     1464.595     -45197.3    2.5877246 
 1070000         1070    14361    770.03578   -46676.765    1429.3217   -45247.443    2.5931614 
 1075000         1075    14361    772.58681   -46670.803    1434.0568   -45236.747    2.5881861 
 1080000         1080    14361    771.56752   -46682.914    1432.1649    -45250.75    2.5821258 
 1085000         1085    14361    787.62787   -46697.302    1461.9757   -45235.327    2.5965392 
 1090000         1090    14361    769.98923   -46682.197    1429.2353   -45252.962    2.5958902 
 1095000         1095    14361    779.35509   -46683.119      1446.62   -45236.499    2.5877722 
 1100000         1100    14361    785.31806   -46677.501    1457.6883   -45219.813    2.5948934 
 1105000         1105    14361    782.72774   -46681.151    1452.8802    -45228.27    2.5947375 
 1110000         1110    14361    773.33578   -46671.762    1435.4471   -45236.315    2.5893035 
 1115000         1115    14361    778.53324   -46686.345    1445.0945    -45241.25    2.5997482 
 1120000         1120    14361     775.6967    -46688.52    1439.8294   -45248.691    2.5929476 
 1125000         1125    14361    771.60562   -46675.897    1432.2356   -45243.662    2.5892979 
 1130000         1130    14361    787.24055   -46681.156    1461.2568   -45219.899     2.598136 
 1135000         1135    14361    785.41437   -46697.266     1457.867   -45239.399    2.5894804 
 1140000         1140    14361    780.11466   -46671.853    1448.0299   -45223.823    2.5891586 
 1145000         1145    14361    784.07178   -46689.796     1455.375   -45234.421    2.5918166 
 1150000         1150    14361    776.72253   -46703.994    1441.7335    -45262.26    2.5972057 
 1155000         1155    14361     776.1452   -46675.113    1440.6619   -45234.452    2.5849383 
 1160000         1160    14361    779.14721   -46710.247    1446.2341   -45264.013    2.5964767 
 1165000         1165    14361    783.79861   -46696.042    1454.8679   -45241.174    2.5972595 
 1170000         1170    14361    781.01965   -46662.648    1449.7097   -45212.938    2.5858382 
 1175000         1175    14361    777.16142   -46680.005    1442.5481   -45237.457    2.5976699 
 1180000         1180    14361    781.67039   -46692.814    1450.9176   -45241.896    2.5992623 
 1185000         1185    14361    779.94549   -46687.181    1447.7158   -45239.465    2.5898903 
 1190000         1190    14361    784.36631   -46681.558    1455.9217   -45225.636    2.5917368 
[...]
 2040000         2040    14361     785.9073    -46684.59     1458.782   -45225.808    2.5975507 
 2045000         2045    14361    784.46803   -46690.828    1456.1105   -45234.717    2.5939894 
 2050000         2050    14361    786.04767   -46683.182    1459.0426   -45224.139    2.5885518 
 2055000         2055    14361    775.95038   -46701.247    1440.3002   -45260.947    2.5958009 
 2060000         2060    14361     781.9614   -46684.457    1451.4577   -45232.999    2.5940764 
 2065000         2065    14361    772.22966   -46680.141    1433.3939   -45246.747     2.590348 
 2070000         2070    14361    783.30438   -46677.879    1453.9505   -45223.928    2.5951279 
 2075000         2075    14361    775.25353   -46706.373    1439.0067   -45267.366    2.5975894 
 2080000         2080    14361    779.33361    -46686.84    1446.5801    -45240.26    2.5885374 
 2085000         2085    14361    781.65156    -46690.05    1450.8826   -45239.168    2.5910457 
 2090000         2090    14361    780.10779    -46686.84    1448.0171   -45238.823     2.595409 
 2095000         2095    14361     777.7124   -46686.661    1443.5708    -45243.09     2.589812 
 2100000         2100    14361    780.57205    -46698.03    1448.8789   -45249.151    2.5878044 
 2105000         2105    14361    786.86015   -46698.475    1460.5507   -45237.924    2.5955091 
 2110000         2110    14361    773.75374   -46687.573    1436.2229   -45251.351    2.5932224 
 2115000         2115    14361    775.71128   -46706.266    1439.8564    -45266.41    2.5940338 
 2120000         2120    14361     772.3174     -46692.9    1433.5568   -45259.343    2.5937193 
 2125000         2125    14361    780.87653   -46679.063     1449.444   -45229.619    2.5913534 
 2130000         2130    14361    771.32125   -46694.373    1431.7078   -45262.665    2.5902906 
 2135000         2135    14361     781.7633   -46698.588      1451.09   -45247.498    2.5943723 
 2140000         2140    14361    775.35934   -46699.907    1439.2032   -45260.704    2.5947902 
 2145000         2145    14361    777.22012   -46696.955    1442.6571   -45254.298     2.595187 
 2150000         2150    14361      775.559   -46698.116    1439.5738   -45258.542    2.5886196 
 2155000         2155    14361     780.6201   -46705.947     1448.968   -45256.979    2.5910255 
 2160000         2160    14361    784.20208   -46685.625    1455.6168   -45230.008    2.5917516 
 2165000         2165    14361     779.0413   -46707.861    1446.0375   -45261.823    2.5928383 
 2170000         2170    14361    775.06813   -46691.731    1438.6626   -45253.069    2.5938567 
 2175000         2175    14361    770.92944   -46688.022    1430.9805   -45257.042     2.587165 
 2180000         2180    14361     776.9758   -46687.342    1442.2036   -45245.138    2.5942418 
 2185000         2185    14361    771.11958   -46689.678    1431.3334   -45258.345     2.590223 
 2190000         2190    14361    782.91835   -46685.856     1453.234   -45232.622    2.5926776 
 2195000         2195    14361    781.68105   -46683.839    1450.9374   -45232.902    2.5903511 
 2200000         2200    14361    785.98932   -46690.273    1458.9343   -45231.339     2.592515 
 2205000         2205    14361    770.17942   -46682.691    1429.5883   -45253.102    2.5927283 
 2210000         2210    14361    778.87586   -46708.571    1445.7304   -45262.841    2.5913209 
 2215000         2215    14361    792.27821   -46700.135    1470.6075   -45229.527    2.5954011 
 2220000         2220    14361    788.08034   -46698.829    1462.8156   -45236.014     2.591379 
 2225000         2225    14361     775.1017   -46697.396    1438.7249   -45258.671    2.5956161 
 2230000         2230    14361    776.53842   -46701.999    1441.3917   -45260.607    2.5945521 
 2235000         2235    14361    779.80172   -46692.448     1447.449   -45244.999       2.5911 
 2240000         2240    14361    775.97515   -46694.436    1440.3462   -45254.089    2.5942848 
 2245000         2245    14361    787.09326     -46684.1    1460.9834   -45223.116    2.5967459 
 2250000         2250    14361    784.01295   -46679.127    1455.2658   -45223.861     2.589024 
 2255000         2255    14361    779.91525   -46678.404    1447.6597   -45230.744    2.5978024 
 2260000         2260    14361    781.24692   -46699.031    1450.1315   -45248.899    2.5950067 
 2265000         2265    14361    784.38954   -46692.997    1455.9648   -45237.032    2.5876207 
 2270000         2270    14361    781.13101    -46681.55    1449.9164   -45231.634     2.589641 
 2275000         2275    14361    772.78075     -46704.2    1434.4168   -45269.783    2.5938477 
 2280000         2280    14361    780.89934   -46680.902    1449.4864   -45231.416    2.5921643 
 2285000         2285    14361     774.8118   -46677.435    1438.1868   -45239.248    2.5894727 
 2290000         2290    14361    780.31047   -46691.894    1448.3933   -45243.501    2.5949885 
 2295000         2295    14361    792.56924   -46675.319    1471.1478   -45204.171    2.5918156 
 2300000         2300    14361    775.86098   -46706.869    1440.1343   -45266.735    2.5937039 
 2305000         2305    14361    783.58241   -46708.372    1454.4666   -45253.905    2.5980297 
 2310000         2310    14361    775.99561   -46687.218    1440.3842   -45246.834    2.5918699 
 2315000         2315    14361    780.57942   -46691.792    1448.8925   -45242.899    2.5907846 
 2320000         2320    14361    771.51683   -46678.127    1432.0708   -45246.057    2.5938938 
 2325000         2325    14361    781.12943   -46675.529    1449.9135   -45225.615    2.5910213 
 2330000         2330    14361    777.98165   -46680.287    1444.0706   -45236.216    2.5899441 
 2335000         2335    14361    768.35562   -46692.095     1426.203   -45265.892    2.5956274 
 2340000         2340    14361    779.88512   -46686.754    1447.6038    -45239.15     2.589008 
 2345000         2345    14361    780.53703   -46694.562    1448.8139   -45245.748    2.5907555 
 2350000         2350    14361       772.95   -46700.276     1434.731   -45265.545    2.5951063 
 2355000         2355    14361    780.35355   -46691.238    1448.4733   -45242.765    2.5882971 
 2360000         2360    14361    782.05605   -46677.358    1451.6334   -45225.725    2.5900608 
 2365000         2365    14361    779.54407   -46708.856    1446.9707   -45261.885    2.5895959 
 2370000         2370    14361    777.07609   -46706.963    1442.3897   -45264.573    2.5914041 
 2375000         2375    14361    778.27431   -46683.222    1444.6138   -45238.608    2.5900917 
 2380000         2380    14361    783.29969   -46692.072    1453.9418   -45238.131     2.594616 
 2385000         2385    14361    774.98305   -46688.535    1438.5047    -45250.03    2.5955151 
 2390000         2390    14361    778.10687   -46696.747    1444.3031   -45252.444    2.5921673 
 2395000         2395    14361    785.56116   -46687.299    1458.1395   -45229.159    2.5885176 
 2400000         2400    14361    774.64734   -46691.485    1437.8816   -45253.604    2.5889326 
 2405000         2405    14361    779.84986   -46701.111    1447.5383   -45253.572    2.5900713 
 2410000         2410    14361    783.55812   -46697.542    1454.4215    -45243.12    2.5921723 
 2415000         2415    14361     778.8624   -46701.565    1445.7054   -45255.859    2.5921324 
 2420000         2420    14361    771.71191   -46670.205    1432.4329   -45237.772    2.5911575 
 2425000         2425    14361    776.08558   -46714.364    1440.5512   -45273.813    2.5852988 
 2430000         2430    14361    773.38279   -46704.777    1435.5343   -45269.242    2.5945914 
 2435000         2435    14361     773.6794   -46681.106    1436.0849   -45245.021    2.5903161 
 2440000         2440    14361    776.01299    -46693.51    1440.4164   -45253.094    2.5937024 
 2445000         2445    14361    774.62354   -46703.417    1437.8374    -45265.58    2.5945858 
 2450000         2450    14361    774.47026   -46686.058    1437.5529   -45248.505    2.5886028 
 2455000         2455    14361     778.7979   -46692.652    1445.5857   -45247.066    2.5894829 
 2460000         2460    14361    786.23452   -46706.617    1459.3894   -45247.227     2.598217 
 2465000         2465    14361    784.86234   -46682.011    1456.8424   -45225.169    2.5896734 
 2470000         2470    14361    783.49859   -46694.325     1454.311   -45240.014     2.594929 
 2475000         2475    14361    773.64583   -46695.011    1436.0226   -45258.988    2.5997038 
 2480000         2480    14361    781.21575   -46685.216    1450.0737   -45235.143    2.5911525 
 2485000         2485    14361     778.9151    -46700.88    1445.8033   -45255.076    2.5889631 
 2490000         2490    14361    768.22182   -46710.015    1425.9547    -45284.06    2.5872684 
 2495000         2495    14361    779.53666    -46704.85     1446.957   -45257.893    2.5903179 
 2500000         2500    14361     779.1425   -46701.609    1446.2254   -45255.384    2.5911874 
 2505000         2505    14361    784.27573   -46677.568    1455.7535   -45221.814    2.5977424 
 2510000         2510    14361    783.18634   -46695.833    1453.7314   -45242.102    2.5929608 
 2515000         2515    14361    782.25092   -46684.669    1451.9951   -45232.674    2.5907689 
 2520000         2520    14361    771.29862   -46689.944    1431.6657   -45258.279    2.5948898 
 2525000         2525    14361    783.63257   -46703.696    1454.5597   -45249.136    2.5894891 
 2530000         2530    14361    775.70796   -46679.047    1439.8502   -45239.197    2.5887498 
 2535000         2535    14361    781.47704   -46710.599    1450.5587    -45260.04    2.5949194 
 2540000         2540    14361    784.28255    -46696.44    1455.7662   -45240.673    2.5915068 
 2545000         2545    14361    772.32864   -46698.024    1433.5776   -45264.446    2.5911579 
 2550000         2550    14361    785.81495   -46694.173    1458.6106   -45235.562     2.597784 
 2555000         2555    14361    785.03484   -46711.211    1457.1626   -45254.048    2.5878211 
 2560000         2560    14361     775.4027   -46688.058    1439.2836   -45248.774    2.5881495 
 2565000         2565    14361    785.04991   -46710.504    1457.1905   -45253.313    2.5957125 
 2570000         2570    14361    783.96078   -46707.312    1455.1689   -45252.143    2.5949883 
 2575000         2575    14361    775.42519   -46691.569    1439.3254   -45252.243    2.5902096 
 2580000         2580    14361    777.31831   -46696.553    1442.8394   -45253.714    2.5969644 
 2585000         2585    14361    780.29264   -46685.038    1448.3602   -45236.678    2.5956808 
 2590000         2590    14361    783.74742   -46703.967    1454.7729   -45249.194    2.5894547 
 2595000         2595    14361    785.38266   -46687.329    1457.8082   -45229.521    2.5969432 
 2600000         2600    14361    782.40424     -46710.1    1452.2797    -45257.82    2.5891284 
 2605000         2605    14361    784.60811   -46701.062    1456.3705   -45244.692    2.5870422 
 2610000         2610    14361    775.37347   -46675.539    1439.2294   -45236.309    2.5936098 
 2615000         2615    14361    776.00977   -46689.584    1440.4105   -45249.173    2.5963921 
 2620000         2620    14361    775.63243   -46697.353    1439.7101   -45257.643    2.5930983 
 2625000         2625    14361    779.20654    -46706.43    1446.3442   -45260.086    2.5944414 
 2630000         2630    14361    774.88712   -46682.462    1438.3266   -45244.135    2.5973313 
 2635000         2635    14361     775.3792   -46687.695      1439.24   -45248.455    2.5852574 
 2640000         2640    14361      771.671   -46706.938    1432.3569   -45274.581    2.5929355 
 2645000         2645    14361     785.0383   -46708.726     1457.169   -45251.557    2.5927713 
 2650000         2650    14361    775.19749   -46693.192    1438.9027    -45254.29    2.5923342 
 2655000         2655    14361     776.9017   -46700.522     1442.066   -45258.456    2.5933557 
 2660000         2660    14361    780.07128   -46708.087    1447.9493   -45260.137    2.5923368 
 2665000         2665    14361    773.73479    -46679.49    1436.1877   -45243.302    2.5857775 
 2670000         2670    14361     776.8398   -46690.697    1441.9511   -45248.746    2.5874001 
 2675000         2675    14361    782.06741   -46699.023    1451.6545   -45247.368    2.5984588 
 2680000         2680    14361       781.92   -46693.763    1451.3809   -45242.382    2.5901646 
 2685000         2685    14361    768.82987   -46679.945    1427.0833   -45252.861    2.5913184 
 2690000         2690    14361    778.54234   -46694.007    1445.1114   -45248.896    2.5914521 
 2695000         2695    14361    781.91775   -46692.188    1451.3767   -45240.811    2.5937438 
 2700000         2700    14361    774.91663   -46677.502    1438.3814    -45239.12    2.5915968 
 2705000         2705    14361    778.46863   -46694.182    1444.9745   -45249.207    2.5922925 
 2710000         2710    14361    784.04668   -46678.439    1455.3284    -45223.11    2.5883854 
 2715000         2715    14361    779.55569   -46675.803    1446.9923   -45228.811    2.5905358 
 2720000         2720    14361    788.40688   -46687.843    1463.4217   -45224.421    2.5969982 
 2725000         2725    14361    776.62875   -46692.754    1441.5594   -45251.194    2.5921678 
 2730000         2730    14361    780.99557   -46701.457     1449.665   -45251.792    2.5911817 
 2735000         2735    14361    783.79497   -46712.662    1454.8612   -45257.801    2.5969727 
 2740000         2740    14361    772.73328    -46697.62    1434.3287   -45263.291    2.5955031 
 2745000         2745    14361    780.05836   -46689.376    1447.9254    -45241.45    2.5859421 
 2750000         2750    14361    772.60782   -46713.287    1434.0959   -45279.191    2.5970584 
 2755000         2755    14361    779.22374   -46695.151    1446.3762   -45248.775    2.5929055 
 2760000         2760    14361     773.0336   -46684.289    1434.8862   -45249.403    2.5923744 
 2765000         2765    14361    788.89323   -46705.494    1464.3244    -45241.17    2.5937707 
 2770000         2770    14361    784.55216   -46693.468    1456.2666   -45237.201    2.5968292 
 2775000         2775    14361    767.82547   -46705.347     1425.219   -45280.128    2.5918208 
 2780000         2780    14361    778.73194    -46693.61    1445.4633   -45248.147    2.5961873 
 2785000         2785    14361     769.7254   -46706.688    1428.7456   -45277.943    2.5916467 
 2790000         2790    14361    781.98799   -46685.374    1451.5071   -45233.867    2.5852351 
 2795000         2795    14361    776.33607   -46700.336    1441.0161   -45259.319    2.5907999 
 2800000         2800    14361    779.47367   -46684.172    1446.8401   -45237.332    2.5906856 
 2805000         2805    14361    780.54812   -46693.968    1448.8344   -45245.133    2.5849391 
 2810000         2810    14361     773.4058   -46696.337     1435.577    -45260.76    2.5919705 
 2815000         2815    14361    768.74975    -46688.32    1426.9346   -45261.385    2.5921346 
 2820000         2820    14361    786.33456   -46694.179    1459.5751   -45234.604    2.5858209 
 2825000         2825    14361    775.27664   -46678.234    1439.0496   -45239.184     2.595584 
 2830000         2830    14361    777.62881   -46690.839    1443.4157   -45247.423    2.5931991 
 2835000         2835    14361    776.82797   -46689.114    1441.9292   -45247.185      2.58777 
 2840000         2840    14361    783.01226   -46696.883    1453.4083   -45243.475    2.5913641 
 2845000         2845    14361    786.87306   -46696.294    1460.5746   -45235.719    2.5913126 
 2850000         2850    14361    782.50063   -46701.461    1452.4586   -45249.002    2.5939964 
 2855000         2855    14361    773.81607   -46705.749    1436.3386   -45269.411    2.5873481 
 2860000         2860    14361    772.42122   -46717.649    1433.7495   -45283.899    2.5944714 
 2865000         2865    14361    780.11797   -46714.457     1448.036   -45266.421    2.5902343 
 2870000         2870    14361    781.66583   -46690.346    1450.9091   -45239.437    2.5904936 
 2875000         2875    14361    780.18848   -46701.985    1448.1669   -45253.818    2.5909445 
 2880000         2880    14361    780.73927   -46672.114    1449.1892   -45222.925    2.5890032 
 2885000         2885    14361    780.15058   -46706.852    1448.0965   -45258.755    2.5886766 
 2890000         2890    14361    779.37739   -46692.812    1446.6614    -45246.15    2.5903206 
 2895000         2895    14361    772.73267   -46690.116    1434.3276   -45255.789    2.5891036 
 2900000         2900    14361    777.87356   -46684.439      1443.87   -45240.569     2.590766 
 2905000         2905    14361    783.99652   -46688.563    1455.2353   -45233.328    2.5936765 
 2910000         2910    14361    774.62683   -46681.784    1437.8435    -45243.94    2.5899782 
 2915000         2915    14361    784.34791   -46674.886    1455.8875   -45218.998    2.5918198 
 2920000         2920    14361    775.10348   -46690.452    1438.7282   -45251.723    2.5888033 
 2925000         2925    14361    780.89571   -46692.452    1449.4796   -45242.973    2.5903079 
 2930000         2930    14361    779.43017   -46679.606    1446.7593   -45232.846    2.5904925 
 2935000         2935    14361    774.81305   -46702.309    1438.1891    -45264.12    2.5887138 
 2940000         2940    14361    786.32581   -46697.233    1459.5588   -45237.675    2.5903752 
 2945000         2945    14361     777.7835    -46688.21    1443.7028   -45244.507    2.5872018 
 2950000         2950    14361    776.33297   -46696.559    1441.0104   -45255.549    2.5883065 
 2955000         2955    14361    787.53649   -46704.382    1461.8061   -45242.576    2.5887658 
 2960000         2960    14361    781.01495   -46699.871     1449.701    -45250.17    2.5885826 
 2965000         2965    14361    774.51513   -46704.964    1437.6362   -45267.328    2.5889429 
 2970000         2970    14361    771.30225     -46691.4    1431.6725   -45259.727    2.5922026 
 2975000         2975    14361    786.79513   -46697.244      1460.43   -45236.814    2.5895819 
 2980000         2980    14361    774.79565   -46699.484    1438.1568   -45261.327    2.5932508 
 2985000         2985    14361    779.03216   -46685.049    1446.0205   -45239.028    2.5876464 
 2990000         2990    14361    766.49638   -46684.988    1422.7519   -45262.236    2.5874749 
 2995000         2995    14361    776.53914   -46690.655    1441.3931   -45249.262    2.5934117 
 3000000         3000    14361    790.84876   -46706.103    1467.9542   -45238.148    2.5948472 
Loop time of 16592.5 on 8 procs for 3000000 steps with 14361 atoms

Performance: 15.621 ns/day, 1.536 hours/ns, 180.804 timesteps/s
100.0% CPU use with 8 MPI tasks x no OpenMP threads

MPI task timing breakdown:
Section |  min time  |  avg time  |  max time  |%varavg| %total
---------------------------------------------------------------
Pair    | 15311      | 15618      | 15876      | 167.8 | 94.13
Neigh   | 218.14     | 229.25     | 235.98     |  40.7 |  1.38
Comm    | 277.9      | 519.61     | 851.08     | 897.6 |  3.13
Output  | 0.5508     | 0.55241    | 0.56252    |   0.5 |  0.00
Modify  | 127.13     | 165.48     | 233.61     | 312.5 |  1.00
Other   |            | 59.79      |            |       |  0.36

Nlocal:        1795.12 ave        1811 max        1773 min
Histogram: 2 0 0 0 0 2 0 1 2 1
Nghost:          10699 ave       11561 max        9673 min
Histogram: 2 0 0 2 0 0 0 0 2 2
Neighs:         123630 ave      126056 max      119425 min
Histogram: 2 0 0 0 0 0 1 1 2 2
FullNghs:       249833 ave      250995 max      247533 min
Histogram: 1 0 0 1 1 0 0 1 1 3

Total # of neighbors = 1998666
Ave neighs/atom = 139.17318
Neighbor list builds = 57170
Dangerous builds = 0

print "All done"
All done
Total wall time: 4:37:10
